V -t * -v 1.0a5 -a 0
A -t * -n 1 -p 0 -o 0x7fffffff -c 30 -a 1
A -t * -h 1 -m 1073741823 -s 0
n -t * -a 0 -s 0 -S UP -v circle -c black -i black
n -t * -a 1 -s 1 -S UP -v circle -c black -i black
n -t * -a 2 -s 2 -S UP -v circle -c black -i black
l -t * -s 0 -d 1 -S UP -r 100000000 -D 0.050000000000000003 -c black -o right-down
l -t * -s 1 -d 2 -S UP -r 100000 -D 0.001 -c black -o right-up
+ -t 0.5 -s 0 -d 1 -p tcp -e 40 -c 0 -i 0 -a 0 -x {0.0 2.0 0 ------- null}
- -t 0.5 -s 0 -d 1 -p tcp -e 40 -c 0 -i 0 -a 0 -x {0.0 2.0 0 ------- null}
h -t 0.5 -s 0 -d 1 -p tcp -e 40 -c 0 -i 0 -a 0 -x {0.0 2.0 -1 ------- null}
r -t 0.5500032 -s 0 -d 1 -p tcp -e 40 -c 0 -i 0 -a 0 -x {0.0 2.0 0 ------- null}
+ -t 0.5500032 -s 1 -d 2 -p tcp -e 40 -c 0 -i 0 -a 0 -x {0.0 2.0 0 ------- null}
- -t 0.5500032 -s 1 -d 2 -p tcp -e 40 -c 0 -i 0 -a 0 -x {0.0 2.0 0 ------- null}
h -t 0.5500032 -s 1 -d 2 -p tcp -e 40 -c 0 -i 0 -a 0 -x {0.0 2.0 -1 ------- null}
r -t 0.5542032 -s 1 -d 2 -p tcp -e 40 -c 0 -i 0 -a 0 -x {0.0 2.0 0 ------- null}
+ -t 0.5542032 -s 2 -d 1 -p ack -e 40 -c 0 -i 1 -a 0 -x {2.0 0.0 0 ------- null}
- -t 0.5542032 -s 2 -d 1 -p ack -e 40 -c 0 -i 1 -a 0 -x {2.0 0.0 0 ------- null}
h -t 0.5542032 -s 2 -d 1 -p ack -e 40 -c 0 -i 1 -a 0 -x {2.0 0.0 -1 ------- null}
r -t 0.5584032 -s 2 -d 1 -p ack -e 40 -c 0 -i 1 -a 0 -x {2.0 0.0 0 ------- null}
+ -t 0.5584032 -s 1 -d 0 -p ack -e 40 -c 0 -i 1 -a 0 -x {2.0 0.0 0 ------- null}
- -t 0.5584032 -s 1 -d 0 -p ack -e 40 -c 0 -i 1 -a 0 -x {2.0 0.0 0 ------- null}
h -t 0.5584032 -s 1 -d 0 -p ack -e 40 -c 0 -i 1 -a 0 -x {2.0 0.0 -1 ------- null}
r -t 0.6084064 -s 1 -d 0 -p ack -e 40 -c 0 -i 1 -a 0 -x {2.0 0.0 0 ------- null}
+ -t 0.6084064 -s 0 -d 1 -p tcp -e 1540 -c 0 -i 2 -a 0 -x {0.0 2.0 1 ------- null}
- -t 0.6084064 -s 0 -d 1 -p tcp -e 1540 -c 0 -i 2 -a 0 -x {0.0 2.0 1 ------- null}
h -t 0.6084064 -s 0 -d 1 -p tcp -e 1540 -c 0 -i 2 -a 0 -x {0.0 2.0 -1 ------- null}
+ -t 0.6084064 -s 0 -d 1 -p tcp -e 1540 -c 0 -i 3 -a 0 -x {0.0 2.0 2 ------- null}
- -t 0.6085296 -s 0 -d 1 -p tcp -e 1540 -c 0 -i 3 -a 0 -x {0.0 2.0 2 ------- null}
h -t 0.6085296 -s 0 -d 1 -p tcp -e 1540 -c 0 -i 3 -a 0 -x {0.0 2.0 -1 ------- null}
r -t 0.6585296 -s 0 -d 1 -p tcp -e 1540 -c 0 -i 2 -a 0 -x {0.0 2.0 1 ------- null}
+ -t 0.6585296 -s 1 -d 2 -p tcp -e 1540 -c 0 -i 2 -a 0 -x {0.0 2.0 1 ------- null}
- -t 0.6585296 -s 1 -d 2 -p tcp -e 1540 -c 0 -i 2 -a 0 -x {0.0 2.0 1 ------- null}
h -t 0.6585296 -s 1 -d 2 -p tcp -e 1540 -c 0 -i 2 -a 0 -x {0.0 2.0 -1 ------- null}
r -t 0.6586528 -s 0 -d 1 -p tcp -e 1540 -c 0 -i 3 -a 0 -x {0.0 2.0 2 ------- null}
+ -t 0.6586528 -s 1 -d 2 -p tcp -e 1540 -c 0 -i 3 -a 0 -x {0.0 2.0 2 ------- null}
- -t 0.7817296 -s 1 -d 2 -p tcp -e 1540 -c 0 -i 3 -a 0 -x {0.0 2.0 2 ------- null}
h -t 0.7817296 -s 1 -d 2 -p tcp -e 1540 -c 0 -i 3 -a 0 -x {0.0 2.0 -1 ------- null}
r -t 0.7827296 -s 1 -d 2 -p tcp -e 1540 -c 0 -i 2 -a 0 -x {0.0 2.0 1 ------- null}
+ -t 0.7827296 -s 2 -d 1 -p ack -e 40 -c 0 -i 4 -a 0 -x {2.0 0.0 1 ------- null}
- -t 0.7827296 -s 2 -d 1 -p ack -e 40 -c 0 -i 4 -a 0 -x {2.0 0.0 1 ------- null}
h -t 0.7827296 -s 2 -d 1 -p ack -e 40 -c 0 -i 4 -a 0 -x {2.0 0.0 -1 ------- null}
r -t 0.7869296 -s 2 -d 1 -p ack -e 40 -c 0 -i 4 -a 0 -x {2.0 0.0 1 ------- null}
+ -t 0.7869296 -s 1 -d 0 -p ack -e 40 -c 0 -i 4 -a 0 -x {2.0 0.0 1 ------- null}
- -t 0.7869296 -s 1 -d 0 -p ack -e 40 -c 0 -i 4 -a 0 -x {2.0 0.0 1 ------- null}
h -t 0.7869296 -s 1 -d 0 -p ack -e 40 -c 0 -i 4 -a 0 -x {2.0 0.0 -1 ------- null}
r -t 0.8369328 -s 1 -d 0 -p ack -e 40 -c 0 -i 4 -a 0 -x {2.0 0.0 1 ------- null}
+ -t 0.8369328 -s 0 -d 1 -p tcp -e 1540 -c 0 -i 5 -a 0 -x {0.0 2.0 3 ------- null}
- -t 0.8369328 -s 0 -d 1 -p tcp -e 1540 -c 0 -i 5 -a 0 -x {0.0 2.0 3 ------- null}
h -t 0.8369328 -s 0 -d 1 -p tcp -e 1540 -c 0 -i 5 -a 0 -x {0.0 2.0 -1 ------- null}
+ -t 0.8369328 -s 0 -d 1 -p tcp -e 1540 -c 0 -i 6 -a 0 -x {0.0 2.0 4 ------- null}
- -t 0.837056 -s 0 -d 1 -p tcp -e 1540 -c 0 -i 6 -a 0 -x {0.0 2.0 4 ------- null}
h -t 0.837056 -s 0 -d 1 -p tcp -e 1540 -c 0 -i 6 -a 0 -x {0.0 2.0 -1 ------- null}
r -t 0.887056 -s 0 -d 1 -p tcp -e 1540 -c 0 -i 5 -a 0 -x {0.0 2.0 3 ------- null}
+ -t 0.887056 -s 1 -d 2 -p tcp -e 1540 -c 0 -i 5 -a 0 -x {0.0 2.0 3 ------- null}
r -t 0.8871792 -s 0 -d 1 -p tcp -e 1540 -c 0 -i 6 -a 0 -x {0.0 2.0 4 ------- null}
+ -t 0.8871792 -s 1 -d 2 -p tcp -e 1540 -c 0 -i 6 -a 0 -x {0.0 2.0 4 ------- null}
- -t 0.9049296 -s 1 -d 2 -p tcp -e 1540 -c 0 -i 5 -a 0 -x {0.0 2.0 3 ------- null}
h -t 0.9049296 -s 1 -d 2 -p tcp -e 1540 -c 0 -i 5 -a 0 -x {0.0 2.0 -1 ------- null}
r -t 0.9059296 -s 1 -d 2 -p tcp -e 1540 -c 0 -i 3 -a 0 -x {0.0 2.0 2 ------- null}
+ -t 0.9059296 -s 2 -d 1 -p ack -e 40 -c 0 -i 7 -a 0 -x {2.0 0.0 2 ------- null}
- -t 0.9059296 -s 2 -d 1 -p ack -e 40 -c 0 -i 7 -a 0 -x {2.0 0.0 2 ------- null}
h -t 0.9059296 -s 2 -d 1 -p ack -e 40 -c 0 -i 7 -a 0 -x {2.0 0.0 -1 ------- null}
r -t 0.9101296 -s 2 -d 1 -p ack -e 40 -c 0 -i 7 -a 0 -x {2.0 0.0 2 ------- null}
+ -t 0.9101296 -s 1 -d 0 -p ack -e 40 -c 0 -i 7 -a 0 -x {2.0 0.0 2 ------- null}
- -t 0.9101296 -s 1 -d 0 -p ack -e 40 -c 0 -i 7 -a 0 -x {2.0 0.0 2 ------- null}
h -t 0.9101296 -s 1 -d 0 -p ack -e 40 -c 0 -i 7 -a 0 -x {2.0 0.0 -1 ------- null}
r -t 0.9601328 -s 1 -d 0 -p ack -e 40 -c 0 -i 7 -a 0 -x {2.0 0.0 2 ------- null}
+ -t 0.9601328 -s 0 -d 1 -p tcp -e 1540 -c 0 -i 8 -a 0 -x {0.0 2.0 5 ------- null}
- -t 0.9601328 -s 0 -d 1 -p tcp -e 1540 -c 0 -i 8 -a 0 -x {0.0 2.0 5 ------- null}
h -t 0.9601328 -s 0 -d 1 -p tcp -e 1540 -c 0 -i 8 -a 0 -x {0.0 2.0 -1 ------- null}
+ -t 0.9601328 -s 0 -d 1 -p tcp -e 1540 -c 0 -i 9 -a 0 -x {0.0 2.0 6 ------- null}
- -t 0.960256 -s 0 -d 1 -p tcp -e 1540 -c 0 -i 9 -a 0 -x {0.0 2.0 6 ------- null}
h -t 0.960256 -s 0 -d 1 -p tcp -e 1540 -c 0 -i 9 -a 0 -x {0.0 2.0 -1 ------- null}
r -t 1.010256 -s 0 -d 1 -p tcp -e 1540 -c 0 -i 8 -a 0 -x {0.0 2.0 5 ------- null}
+ -t 1.010256 -s 1 -d 2 -p tcp -e 1540 -c 0 -i 8 -a 0 -x {0.0 2.0 5 ------- null}
r -t 1.0103792 -s 0 -d 1 -p tcp -e 1540 -c 0 -i 9 -a 0 -x {0.0 2.0 6 ------- null}
+ -t 1.0103792 -s 1 -d 2 -p tcp -e 1540 -c 0 -i 9 -a 0 -x {0.0 2.0 6 ------- null}
- -t 1.0281296 -s 1 -d 2 -p tcp -e 1540 -c 0 -i 6 -a 0 -x {0.0 2.0 4 ------- null}
h -t 1.0281296 -s 1 -d 2 -p tcp -e 1540 -c 0 -i 6 -a 0 -x {0.0 2.0 -1 ------- null}
r -t 1.0291296 -s 1 -d 2 -p tcp -e 1540 -c 0 -i 5 -a 0 -x {0.0 2.0 3 ------- null}
+ -t 1.0291296 -s 2 -d 1 -p ack -e 40 -c 0 -i 10 -a 0 -x {2.0 0.0 3 ------- null}
- -t 1.0291296 -s 2 -d 1 -p ack -e 40 -c 0 -i 10 -a 0 -x {2.0 0.0 3 ------- null}
h -t 1.0291296 -s 2 -d 1 -p ack -e 40 -c 0 -i 10 -a 0 -x {2.0 0.0 -1 ------- null}
r -t 1.0333296 -s 2 -d 1 -p ack -e 40 -c 0 -i 10 -a 0 -x {2.0 0.0 3 ------- null}
+ -t 1.0333296 -s 1 -d 0 -p ack -e 40 -c 0 -i 10 -a 0 -x {2.0 0.0 3 ------- null}
- -t 1.0333296 -s 1 -d 0 -p ack -e 40 -c 0 -i 10 -a 0 -x {2.0 0.0 3 ------- null}
h -t 1.0333296 -s 1 -d 0 -p ack -e 40 -c 0 -i 10 -a 0 -x {2.0 0.0 -1 ------- null}
r -t 1.0833328 -s 1 -d 0 -p ack -e 40 -c 0 -i 10 -a 0 -x {2.0 0.0 3 ------- null}
+ -t 1.0833328 -s 0 -d 1 -p tcp -e 1540 -c 0 -i 11 -a 0 -x {0.0 2.0 7 ------- null}
- -t 1.0833328 -s 0 -d 1 -p tcp -e 1540 -c 0 -i 11 -a 0 -x {0.0 2.0 7 ------- null}
h -t 1.0833328 -s 0 -d 1 -p tcp -e 1540 -c 0 -i 11 -a 0 -x {0.0 2.0 -1 ------- null}
+ -t 1.0833328 -s 0 -d 1 -p tcp -e 1540 -c 0 -i 12 -a 0 -x {0.0 2.0 8 ------- null}
- -t 1.083456 -s 0 -d 1 -p tcp -e 1540 -c 0 -i 12 -a 0 -x {0.0 2.0 8 ------- null}
h -t 1.083456 -s 0 -d 1 -p tcp -e 1540 -c 0 -i 12 -a 0 -x {0.0 2.0 -1 ------- null}
r -t 1.133456 -s 0 -d 1 -p tcp -e 1540 -c 0 -i 11 -a 0 -x {0.0 2.0 7 ------- null}
+ -t 1.133456 -s 1 -d 2 -p tcp -e 1540 -c 0 -i 11 -a 0 -x {0.0 2.0 7 ------- null}
r -t 1.1335792 -s 0 -d 1 -p tcp -e 1540 -c 0 -i 12 -a 0 -x {0.0 2.0 8 ------- null}
+ -t 1.1335792 -s 1 -d 2 -p tcp -e 1540 -c 0 -i 12 -a 0 -x {0.0 2.0 8 ------- null}
- -t 1.1513296 -s 1 -d 2 -p tcp -e 1540 -c 0 -i 8 -a 0 -x {0.0 2.0 5 ------- null}
h -t 1.1513296 -s 1 -d 2 -p tcp -e 1540 -c 0 -i 8 -a 0 -x {0.0 2.0 -1 ------- null}
r -t 1.1523296 -s 1 -d 2 -p tcp -e 1540 -c 0 -i 6 -a 0 -x {0.0 2.0 4 ------- null}
+ -t 1.1523296 -s 2 -d 1 -p ack -e 40 -c 0 -i 13 -a 0 -x {2.0 0.0 4 ------- null}
- -t 1.1523296 -s 2 -d 1 -p ack -e 40 -c 0 -i 13 -a 0 -x {2.0 0.0 4 ------- null}
h -t 1.1523296 -s 2 -d 1 -p ack -e 40 -c 0 -i 13 -a 0 -x {2.0 0.0 -1 ------- null}
r -t 1.1565296 -s 2 -d 1 -p ack -e 40 -c 0 -i 13 -a 0 -x {2.0 0.0 4 ------- null}
+ -t 1.1565296 -s 1 -d 0 -p ack -e 40 -c 0 -i 13 -a 0 -x {2.0 0.0 4 ------- null}
- -t 1.1565296 -s 1 -d 0 -p ack -e 40 -c 0 -i 13 -a 0 -x {2.0 0.0 4 ------- null}
h -t 1.1565296 -s 1 -d 0 -p ack -e 40 -c 0 -i 13 -a 0 -x {2.0 0.0 -1 ------- null}
r -t 1.2065328 -s 1 -d 0 -p ack -e 40 -c 0 -i 13 -a 0 -x {2.0 0.0 4 ------- null}
+ -t 1.2065328 -s 0 -d 1 -p tcp -e 1540 -c 0 -i 14 -a 0 -x {0.0 2.0 9 ------- null}
- -t 1.2065328 -s 0 -d 1 -p tcp -e 1540 -c 0 -i 14 -a 0 -x {0.0 2.0 9 ------- null}
h -t 1.2065328 -s 0 -d 1 -p tcp -e 1540 -c 0 -i 14 -a 0 -x {0.0 2.0 -1 ------- null}
+ -t 1.2065328 -s 0 -d 1 -p tcp -e 1540 -c 0 -i 15 -a 0 -x {0.0 2.0 10 ------- null}
- -t 1.206656 -s 0 -d 1 -p tcp -e 1540 -c 0 -i 15 -a 0 -x {0.0 2.0 10 ------- null}
h -t 1.206656 -s 0 -d 1 -p tcp -e 1540 -c 0 -i 15 -a 0 -x {0.0 2.0 -1 ------- null}
r -t 1.256656 -s 0 -d 1 -p tcp -e 1540 -c 0 -i 14 -a 0 -x {0.0 2.0 9 ------- null}
+ -t 1.256656 -s 1 -d 2 -p tcp -e 1540 -c 0 -i 14 -a 0 -x {0.0 2.0 9 ------- null}
r -t 1.2567792 -s 0 -d 1 -p tcp -e 1540 -c 0 -i 15 -a 0 -x {0.0 2.0 10 ------- null}
+ -t 1.2567792 -s 1 -d 2 -p tcp -e 1540 -c 0 -i 15 -a 0 -x {0.0 2.0 10 ------- null}
- -t 1.2745296 -s 1 -d 2 -p tcp -e 1540 -c 0 -i 9 -a 0 -x {0.0 2.0 6 ------- null}
h -t 1.2745296 -s 1 -d 2 -p tcp -e 1540 -c 0 -i 9 -a 0 -x {0.0 2.0 -1 ------- null}
r -t 1.2755296 -s 1 -d 2 -p tcp -e 1540 -c 0 -i 8 -a 0 -x {0.0 2.0 5 ------- null}
+ -t 1.2755296 -s 2 -d 1 -p ack -e 40 -c 0 -i 16 -a 0 -x {2.0 0.0 5 ------- null}
- -t 1.2755296 -s 2 -d 1 -p ack -e 40 -c 0 -i 16 -a 0 -x {2.0 0.0 5 ------- null}
h -t 1.2755296 -s 2 -d 1 -p ack -e 40 -c 0 -i 16 -a 0 -x {2.0 0.0 -1 ------- null}
r -t 1.2797296 -s 2 -d 1 -p ack -e 40 -c 0 -i 16 -a 0 -x {2.0 0.0 5 ------- null}
+ -t 1.2797296 -s 1 -d 0 -p ack -e 40 -c 0 -i 16 -a 0 -x {2.0 0.0 5 ------- null}
- -t 1.2797296 -s 1 -d 0 -p ack -e 40 -c 0 -i 16 -a 0 -x {2.0 0.0 5 ------- null}
h -t 1.2797296 -s 1 -d 0 -p ack -e 40 -c 0 -i 16 -a 0 -x {2.0 0.0 -1 ------- null}
r -t 1.3297328 -s 1 -d 0 -p ack -e 40 -c 0 -i 16 -a 0 -x {2.0 0.0 5 ------- null}
+ -t 1.3297328 -s 0 -d 1 -p tcp -e 1540 -c 0 -i 17 -a 0 -x {0.0 2.0 11 ------- null}
- -t 1.3297328 -s 0 -d 1 -p tcp -e 1540 -c 0 -i 17 -a 0 -x {0.0 2.0 11 ------- null}
h -t 1.3297328 -s 0 -d 1 -p tcp -e 1540 -c 0 -i 17 -a 0 -x {0.0 2.0 -1 ------- null}
+ -t 1.3297328 -s 0 -d 1 -p tcp -e 1540 -c 0 -i 18 -a 0 -x {0.0 2.0 12 ------- null}
- -t 1.329856 -s 0 -d 1 -p tcp -e 1540 -c 0 -i 18 -a 0 -x {0.0 2.0 12 ------- null}
h -t 1.329856 -s 0 -d 1 -p tcp -e 1540 -c 0 -i 18 -a 0 -x {0.0 2.0 -1 ------- null}
r -t 1.379856 -s 0 -d 1 -p tcp -e 1540 -c 0 -i 17 -a 0 -x {0.0 2.0 11 ------- null}
+ -t 1.379856 -s 1 -d 2 -p tcp -e 1540 -c 0 -i 17 -a 0 -x {0.0 2.0 11 ------- null}
r -t 1.3799792 -s 0 -d 1 -p tcp -e 1540 -c 0 -i 18 -a 0 -x {0.0 2.0 12 ------- null}
+ -t 1.3799792 -s 1 -d 2 -p tcp -e 1540 -c 0 -i 18 -a 0 -x {0.0 2.0 12 ------- null}
- -t 1.3977296 -s 1 -d 2 -p tcp -e 1540 -c 0 -i 11 -a 0 -x {0.0 2.0 7 ------- null}
h -t 1.3977296 -s 1 -d 2 -p tcp -e 1540 -c 0 -i 11 -a 0 -x {0.0 2.0 -1 ------- null}
r -t 1.3987296 -s 1 -d 2 -p tcp -e 1540 -c 0 -i 9 -a 0 -x {0.0 2.0 6 ------- null}
+ -t 1.3987296 -s 2 -d 1 -p ack -e 40 -c 0 -i 19 -a 0 -x {2.0 0.0 6 ------- null}
- -t 1.3987296 -s 2 -d 1 -p ack -e 40 -c 0 -i 19 -a 0 -x {2.0 0.0 6 ------- null}
h -t 1.3987296 -s 2 -d 1 -p ack -e 40 -c 0 -i 19 -a 0 -x {2.0 0.0 -1 ------- null}
r -t 1.4029296 -s 2 -d 1 -p ack -e 40 -c 0 -i 19 -a 0 -x {2.0 0.0 6 ------- null}
+ -t 1.4029296 -s 1 -d 0 -p ack -e 40 -c 0 -i 19 -a 0 -x {2.0 0.0 6 ------- null}
- -t 1.4029296 -s 1 -d 0 -p ack -e 40 -c 0 -i 19 -a 0 -x {2.0 0.0 6 ------- null}
h -t 1.4029296 -s 1 -d 0 -p ack -e 40 -c 0 -i 19 -a 0 -x {2.0 0.0 -1 ------- null}
r -t 1.4529328 -s 1 -d 0 -p ack -e 40 -c 0 -i 19 -a 0 -x {2.0 0.0 6 ------- null}
+ -t 1.4529328 -s 0 -d 1 -p tcp -e 1540 -c 0 -i 20 -a 0 -x {0.0 2.0 13 ------- null}
- -t 1.4529328 -s 0 -d 1 -p tcp -e 1540 -c 0 -i 20 -a 0 -x {0.0 2.0 13 ------- null}
h -t 1.4529328 -s 0 -d 1 -p tcp -e 1540 -c 0 -i 20 -a 0 -x {0.0 2.0 -1 ------- null}
+ -t 1.4529328 -s 0 -d 1 -p tcp -e 1540 -c 0 -i 21 -a 0 -x {0.0 2.0 14 ------- null}
- -t 1.453056 -s 0 -d 1 -p tcp -e 1540 -c 0 -i 21 -a 0 -x {0.0 2.0 14 ------- null}
h -t 1.453056 -s 0 -d 1 -p tcp -e 1540 -c 0 -i 21 -a 0 -x {0.0 2.0 -1 ------- null}
r -t 1.503056 -s 0 -d 1 -p tcp -e 1540 -c 0 -i 20 -a 0 -x {0.0 2.0 13 ------- null}
+ -t 1.503056 -s 1 -d 2 -p tcp -e 1540 -c 0 -i 20 -a 0 -x {0.0 2.0 13 ------- null}
r -t 1.5031792 -s 0 -d 1 -p tcp -e 1540 -c 0 -i 21 -a 0 -x {0.0 2.0 14 ------- null}
+ -t 1.5031792 -s 1 -d 2 -p tcp -e 1540 -c 0 -i 21 -a 0 -x {0.0 2.0 14 ------- null}
- -t 1.5209296 -s 1 -d 2 -p tcp -e 1540 -c 0 -i 12 -a 0 -x {0.0 2.0 8 ------- null}
h -t 1.5209296 -s 1 -d 2 -p tcp -e 1540 -c 0 -i 12 -a 0 -x {0.0 2.0 -1 ------- null}
r -t 1.5219296 -s 1 -d 2 -p tcp -e 1540 -c 0 -i 11 -a 0 -x {0.0 2.0 7 ------- null}
+ -t 1.5219296 -s 2 -d 1 -p ack -e 40 -c 0 -i 22 -a 0 -x {2.0 0.0 7 ------- null}
- -t 1.5219296 -s 2 -d 1 -p ack -e 40 -c 0 -i 22 -a 0 -x {2.0 0.0 7 ------- null}
h -t 1.5219296 -s 2 -d 1 -p ack -e 40 -c 0 -i 22 -a 0 -x {2.0 0.0 -1 ------- null}
r -t 1.5261296 -s 2 -d 1 -p ack -e 40 -c 0 -i 22 -a 0 -x {2.0 0.0 7 ------- null}
+ -t 1.5261296 -s 1 -d 0 -p ack -e 40 -c 0 -i 22 -a 0 -x {2.0 0.0 7 ------- null}
- -t 1.5261296 -s 1 -d 0 -p ack -e 40 -c 0 -i 22 -a 0 -x {2.0 0.0 7 ------- null}
h -t 1.5261296 -s 1 -d 0 -p ack -e 40 -c 0 -i 22 -a 0 -x {2.0 0.0 -1 ------- null}
r -t 1.5761328 -s 1 -d 0 -p ack -e 40 -c 0 -i 22 -a 0 -x {2.0 0.0 7 ------- null}
+ -t 1.5761328 -s 0 -d 1 -p tcp -e 1540 -c 0 -i 23 -a 0 -x {0.0 2.0 15 ------- null}
- -t 1.5761328 -s 0 -d 1 -p tcp -e 1540 -c 0 -i 23 -a 0 -x {0.0 2.0 15 ------- null}
h -t 1.5761328 -s 0 -d 1 -p tcp -e 1540 -c 0 -i 23 -a 0 -x {0.0 2.0 -1 ------- null}
+ -t 1.5761328 -s 0 -d 1 -p tcp -e 1540 -c 0 -i 24 -a 0 -x {0.0 2.0 16 ------- null}
- -t 1.576256 -s 0 -d 1 -p tcp -e 1540 -c 0 -i 24 -a 0 -x {0.0 2.0 16 ------- null}
h -t 1.576256 -s 0 -d 1 -p tcp -e 1540 -c 0 -i 24 -a 0 -x {0.0 2.0 -1 ------- null}
r -t 1.626256 -s 0 -d 1 -p tcp -e 1540 -c 0 -i 23 -a 0 -x {0.0 2.0 15 ------- null}
+ -t 1.626256 -s 1 -d 2 -p tcp -e 1540 -c 0 -i 23 -a 0 -x {0.0 2.0 15 ------- null}
r -t 1.6263792 -s 0 -d 1 -p tcp -e 1540 -c 0 -i 24 -a 0 -x {0.0 2.0 16 ------- null}
+ -t 1.6263792 -s 1 -d 2 -p tcp -e 1540 -c 0 -i 24 -a 0 -x {0.0 2.0 16 ------- null}
- -t 1.6441296 -s 1 -d 2 -p tcp -e 1540 -c 0 -i 14 -a 0 -x {0.0 2.0 9 ------- null}
h -t 1.6441296 -s 1 -d 2 -p tcp -e 1540 -c 0 -i 14 -a 0 -x {0.0 2.0 -1 ------- null}
r -t 1.6451296 -s 1 -d 2 -p tcp -e 1540 -c 0 -i 12 -a 0 -x {0.0 2.0 8 ------- null}
+ -t 1.6451296 -s 2 -d 1 -p ack -e 40 -c 0 -i 25 -a 0 -x {2.0 0.0 8 ------- null}
- -t 1.6451296 -s 2 -d 1 -p ack -e 40 -c 0 -i 25 -a 0 -x {2.0 0.0 8 ------- null}
h -t 1.6451296 -s 2 -d 1 -p ack -e 40 -c 0 -i 25 -a 0 -x {2.0 0.0 -1 ------- null}
r -t 1.6493296 -s 2 -d 1 -p ack -e 40 -c 0 -i 25 -a 0 -x {2.0 0.0 8 ------- null}
+ -t 1.6493296 -s 1 -d 0 -p ack -e 40 -c 0 -i 25 -a 0 -x {2.0 0.0 8 ------- null}
- -t 1.6493296 -s 1 -d 0 -p ack -e 40 -c 0 -i 25 -a 0 -x {2.0 0.0 8 ------- null}
h -t 1.6493296 -s 1 -d 0 -p ack -e 40 -c 0 -i 25 -a 0 -x {2.0 0.0 -1 ------- null}
r -t 1.6993328 -s 1 -d 0 -p ack -e 40 -c 0 -i 25 -a 0 -x {2.0 0.0 8 ------- null}
+ -t 1.6993328 -s 0 -d 1 -p tcp -e 1540 -c 0 -i 26 -a 0 -x {0.0 2.0 17 ------- null}
- -t 1.6993328 -s 0 -d 1 -p tcp -e 1540 -c 0 -i 26 -a 0 -x {0.0 2.0 17 ------- null}
h -t 1.6993328 -s 0 -d 1 -p tcp -e 1540 -c 0 -i 26 -a 0 -x {0.0 2.0 -1 ------- null}
+ -t 1.6993328 -s 0 -d 1 -p tcp -e 1540 -c 0 -i 27 -a 0 -x {0.0 2.0 18 ------- null}
- -t 1.699456 -s 0 -d 1 -p tcp -e 1540 -c 0 -i 27 -a 0 -x {0.0 2.0 18 ------- null}
h -t 1.699456 -s 0 -d 1 -p tcp -e 1540 -c 0 -i 27 -a 0 -x {0.0 2.0 -1 ------- null}
r -t 1.749456 -s 0 -d 1 -p tcp -e 1540 -c 0 -i 26 -a 0 -x {0.0 2.0 17 ------- null}
+ -t 1.749456 -s 1 -d 2 -p tcp -e 1540 -c 0 -i 26 -a 0 -x {0.0 2.0 17 ------- null}
r -t 1.7495792 -s 0 -d 1 -p tcp -e 1540 -c 0 -i 27 -a 0 -x {0.0 2.0 18 ------- null}
+ -t 1.7495792 -s 1 -d 2 -p tcp -e 1540 -c 0 -i 27 -a 0 -x {0.0 2.0 18 ------- null}
- -t 1.7673296 -s 1 -d 2 -p tcp -e 1540 -c 0 -i 15 -a 0 -x {0.0 2.0 10 ------- null}
h -t 1.7673296 -s 1 -d 2 -p tcp -e 1540 -c 0 -i 15 -a 0 -x {0.0 2.0 -1 ------- null}
r -t 1.7683296 -s 1 -d 2 -p tcp -e 1540 -c 0 -i 14 -a 0 -x {0.0 2.0 9 ------- null}
+ -t 1.7683296 -s 2 -d 1 -p ack -e 40 -c 0 -i 28 -a 0 -x {2.0 0.0 9 ------- null}
- -t 1.7683296 -s 2 -d 1 -p ack -e 40 -c 0 -i 28 -a 0 -x {2.0 0.0 9 ------- null}
h -t 1.7683296 -s 2 -d 1 -p ack -e 40 -c 0 -i 28 -a 0 -x {2.0 0.0 -1 ------- null}
r -t 1.7725296 -s 2 -d 1 -p ack -e 40 -c 0 -i 28 -a 0 -x {2.0 0.0 9 ------- null}
+ -t 1.7725296 -s 1 -d 0 -p ack -e 40 -c 0 -i 28 -a 0 -x {2.0 0.0 9 ------- null}
- -t 1.7725296 -s 1 -d 0 -p ack -e 40 -c 0 -i 28 -a 0 -x {2.0 0.0 9 ------- null}
h -t 1.7725296 -s 1 -d 0 -p ack -e 40 -c 0 -i 28 -a 0 -x {2.0 0.0 -1 ------- null}
r -t 1.8225328 -s 1 -d 0 -p ack -e 40 -c 0 -i 28 -a 0 -x {2.0 0.0 9 ------- null}
+ -t 1.8225328 -s 0 -d 1 -p tcp -e 1540 -c 0 -i 29 -a 0 -x {0.0 2.0 19 ------- null}
- -t 1.8225328 -s 0 -d 1 -p tcp -e 1540 -c 0 -i 29 -a 0 -x {0.0 2.0 19 ------- null}
h -t 1.8225328 -s 0 -d 1 -p tcp -e 1540 -c 0 -i 29 -a 0 -x {0.0 2.0 -1 ------- null}
+ -t 1.8225328 -s 0 -d 1 -p tcp -e 1540 -c 0 -i 30 -a 0 -x {0.0 2.0 20 ------- null}
- -t 1.822656 -s 0 -d 1 -p tcp -e 1540 -c 0 -i 30 -a 0 -x {0.0 2.0 20 ------- null}
h -t 1.822656 -s 0 -d 1 -p tcp -e 1540 -c 0 -i 30 -a 0 -x {0.0 2.0 -1 ------- null}
r -t 1.872656 -s 0 -d 1 -p tcp -e 1540 -c 0 -i 29 -a 0 -x {0.0 2.0 19 ------- null}
+ -t 1.872656 -s 1 -d 2 -p tcp -e 1540 -c 0 -i 29 -a 0 -x {0.0 2.0 19 ------- null}
r -t 1.8727792 -s 0 -d 1 -p tcp -e 1540 -c 0 -i 30 -a 0 -x {0.0 2.0 20 ------- null}
+ -t 1.8727792 -s 1 -d 2 -p tcp -e 1540 -c 0 -i 30 -a 0 -x {0.0 2.0 20 ------- null}
d -t 1.8727792 -s 1 -d 2 -p tcp -e 1540 -c 0 -i 30 -a 0 -x {0.0 2.0 20 ------- null}
- -t 1.8905296 -s 1 -d 2 -p tcp -e 1540 -c 0 -i 17 -a 0 -x {0.0 2.0 11 ------- null}
h -t 1.8905296 -s 1 -d 2 -p tcp -e 1540 -c 0 -i 17 -a 0 -x {0.0 2.0 -1 ------- null}
r -t 1.8915296 -s 1 -d 2 -p tcp -e 1540 -c 0 -i 15 -a 0 -x {0.0 2.0 10 ------- null}
+ -t 1.8915296 -s 2 -d 1 -p ack -e 40 -c 0 -i 31 -a 0 -x {2.0 0.0 10 ------- null}
- -t 1.8915296 -s 2 -d 1 -p ack -e 40 -c 0 -i 31 -a 0 -x {2.0 0.0 10 ------- null}
h -t 1.8915296 -s 2 -d 1 -p ack -e 40 -c 0 -i 31 -a 0 -x {2.0 0.0 -1 ------- null}
r -t 1.8957296 -s 2 -d 1 -p ack -e 40 -c 0 -i 31 -a 0 -x {2.0 0.0 10 ------- null}
+ -t 1.8957296 -s 1 -d 0 -p ack -e 40 -c 0 -i 31 -a 0 -x {2.0 0.0 10 ------- null}
- -t 1.8957296 -s 1 -d 0 -p ack -e 40 -c 0 -i 31 -a 0 -x {2.0 0.0 10 ------- null}
h -t 1.8957296 -s 1 -d 0 -p ack -e 40 -c 0 -i 31 -a 0 -x {2.0 0.0 -1 ------- null}
r -t 1.9457328 -s 1 -d 0 -p ack -e 40 -c 0 -i 31 -a 0 -x {2.0 0.0 10 ------- null}
+ -t 1.9457328 -s 0 -d 1 -p tcp -e 1540 -c 0 -i 32 -a 0 -x {0.0 2.0 21 ------- null}
- -t 1.9457328 -s 0 -d 1 -p tcp -e 1540 -c 0 -i 32 -a 0 -x {0.0 2.0 21 ------- null}
h -t 1.9457328 -s 0 -d 1 -p tcp -e 1540 -c 0 -i 32 -a 0 -x {0.0 2.0 -1 ------- null}
+ -t 1.9457328 -s 0 -d 1 -p tcp -e 1540 -c 0 -i 33 -a 0 -x {0.0 2.0 22 ------- null}
- -t 1.945856 -s 0 -d 1 -p tcp -e 1540 -c 0 -i 33 -a 0 -x {0.0 2.0 22 ------- null}
h -t 1.945856 -s 0 -d 1 -p tcp -e 1540 -c 0 -i 33 -a 0 -x {0.0 2.0 -1 ------- null}
r -t 1.995856 -s 0 -d 1 -p tcp -e 1540 -c 0 -i 32 -a 0 -x {0.0 2.0 21 ------- null}
+ -t 1.995856 -s 1 -d 2 -p tcp -e 1540 -c 0 -i 32 -a 0 -x {0.0 2.0 21 ------- null}
r -t 1.9959792 -s 0 -d 1 -p tcp -e 1540 -c 0 -i 33 -a 0 -x {0.0 2.0 22 ------- null}
+ -t 1.9959792 -s 1 -d 2 -p tcp -e 1540 -c 0 -i 33 -a 0 -x {0.0 2.0 22 ------- null}
d -t 1.9959792 -s 1 -d 2 -p tcp -e 1540 -c 0 -i 33 -a 0 -x {0.0 2.0 22 ------- null}
- -t 2.0137296 -s 1 -d 2 -p tcp -e 1540 -c 0 -i 18 -a 0 -x {0.0 2.0 12 ------- null}
h -t 2.0137296 -s 1 -d 2 -p tcp -e 1540 -c 0 -i 18 -a 0 -x {0.0 2.0 -1 ------- null}
r -t 2.0147296 -s 1 -d 2 -p tcp -e 1540 -c 0 -i 17 -a 0 -x {0.0 2.0 11 ------- null}
+ -t 2.0147296 -s 2 -d 1 -p ack -e 40 -c 0 -i 34 -a 0 -x {2.0 0.0 11 ------- null}
- -t 2.0147296 -s 2 -d 1 -p ack -e 40 -c 0 -i 34 -a 0 -x {2.0 0.0 11 ------- null}
h -t 2.0147296 -s 2 -d 1 -p ack -e 40 -c 0 -i 34 -a 0 -x {2.0 0.0 -1 ------- null}
r -t 2.0189296 -s 2 -d 1 -p ack -e 40 -c 0 -i 34 -a 0 -x {2.0 0.0 11 ------- null}
+ -t 2.0189296 -s 1 -d 0 -p ack -e 40 -c 0 -i 34 -a 0 -x {2.0 0.0 11 ------- null}
- -t 2.0189296 -s 1 -d 0 -p ack -e 40 -c 0 -i 34 -a 0 -x {2.0 0.0 11 ------- null}
h -t 2.0189296 -s 1 -d 0 -p ack -e 40 -c 0 -i 34 -a 0 -x {2.0 0.0 -1 ------- null}
r -t 2.0689328 -s 1 -d 0 -p ack -e 40 -c 0 -i 34 -a 0 -x {2.0 0.0 11 ------- null}
+ -t 2.0689328 -s 0 -d 1 -p tcp -e 1540 -c 0 -i 35 -a 0 -x {0.0 2.0 23 ------- null}
- -t 2.0689328 -s 0 -d 1 -p tcp -e 1540 -c 0 -i 35 -a 0 -x {0.0 2.0 23 ------- null}
h -t 2.0689328 -s 0 -d 1 -p tcp -e 1540 -c 0 -i 35 -a 0 -x {0.0 2.0 -1 ------- null}
+ -t 2.0689328 -s 0 -d 1 -p tcp -e 1540 -c 0 -i 36 -a 0 -x {0.0 2.0 24 ------- null}
- -t 2.069056 -s 0 -d 1 -p tcp -e 1540 -c 0 -i 36 -a 0 -x {0.0 2.0 24 ------- null}
h -t 2.069056 -s 0 -d 1 -p tcp -e 1540 -c 0 -i 36 -a 0 -x {0.0 2.0 -1 ------- null}
r -t 2.119056 -s 0 -d 1 -p tcp -e 1540 -c 0 -i 35 -a 0 -x {0.0 2.0 23 ------- null}
+ -t 2.119056 -s 1 -d 2 -p tcp -e 1540 -c 0 -i 35 -a 0 -x {0.0 2.0 23 ------- null}
r -t 2.1191792 -s 0 -d 1 -p tcp -e 1540 -c 0 -i 36 -a 0 -x {0.0 2.0 24 ------- null}
+ -t 2.1191792 -s 1 -d 2 -p tcp -e 1540 -c 0 -i 36 -a 0 -x {0.0 2.0 24 ------- null}
d -t 2.1191792 -s 1 -d 2 -p tcp -e 1540 -c 0 -i 36 -a 0 -x {0.0 2.0 24 ------- null}
- -t 2.1369296 -s 1 -d 2 -p tcp -e 1540 -c 0 -i 20 -a 0 -x {0.0 2.0 13 ------- null}
h -t 2.1369296 -s 1 -d 2 -p tcp -e 1540 -c 0 -i 20 -a 0 -x {0.0 2.0 -1 ------- null}
r -t 2.1379296 -s 1 -d 2 -p tcp -e 1540 -c 0 -i 18 -a 0 -x {0.0 2.0 12 ------- null}
+ -t 2.1379296 -s 2 -d 1 -p ack -e 40 -c 0 -i 37 -a 0 -x {2.0 0.0 12 ------- null}
- -t 2.1379296 -s 2 -d 1 -p ack -e 40 -c 0 -i 37 -a 0 -x {2.0 0.0 12 ------- null}
h -t 2.1379296 -s 2 -d 1 -p ack -e 40 -c 0 -i 37 -a 0 -x {2.0 0.0 -1 ------- null}
r -t 2.1421296 -s 2 -d 1 -p ack -e 40 -c 0 -i 37 -a 0 -x {2.0 0.0 12 ------- null}
+ -t 2.1421296 -s 1 -d 0 -p ack -e 40 -c 0 -i 37 -a 0 -x {2.0 0.0 12 ------- null}
- -t 2.1421296 -s 1 -d 0 -p ack -e 40 -c 0 -i 37 -a 0 -x {2.0 0.0 12 ------- null}
h -t 2.1421296 -s 1 -d 0 -p ack -e 40 -c 0 -i 37 -a 0 -x {2.0 0.0 -1 ------- null}
r -t 2.1921328 -s 1 -d 0 -p ack -e 40 -c 0 -i 37 -a 0 -x {2.0 0.0 12 ------- null}
+ -t 2.1921328 -s 0 -d 1 -p tcp -e 1540 -c 0 -i 38 -a 0 -x {0.0 2.0 25 ------- null}
- -t 2.1921328 -s 0 -d 1 -p tcp -e 1540 -c 0 -i 38 -a 0 -x {0.0 2.0 25 ------- null}
h -t 2.1921328 -s 0 -d 1 -p tcp -e 1540 -c 0 -i 38 -a 0 -x {0.0 2.0 -1 ------- null}
+ -t 2.1921328 -s 0 -d 1 -p tcp -e 1540 -c 0 -i 39 -a 0 -x {0.0 2.0 26 ------- null}
- -t 2.192256 -s 0 -d 1 -p tcp -e 1540 -c 0 -i 39 -a 0 -x {0.0 2.0 26 ------- null}
h -t 2.192256 -s 0 -d 1 -p tcp -e 1540 -c 0 -i 39 -a 0 -x {0.0 2.0 -1 ------- null}
r -t 2.242256 -s 0 -d 1 -p tcp -e 1540 -c 0 -i 38 -a 0 -x {0.0 2.0 25 ------- null}
+ -t 2.242256 -s 1 -d 2 -p tcp -e 1540 -c 0 -i 38 -a 0 -x {0.0 2.0 25 ------- null}
r -t 2.2423792 -s 0 -d 1 -p tcp -e 1540 -c 0 -i 39 -a 0 -x {0.0 2.0 26 ------- null}
+ -t 2.2423792 -s 1 -d 2 -p tcp -e 1540 -c 0 -i 39 -a 0 -x {0.0 2.0 26 ------- null}
d -t 2.2423792 -s 1 -d 2 -p tcp -e 1540 -c 0 -i 39 -a 0 -x {0.0 2.0 26 ------- null}
- -t 2.2601296 -s 1 -d 2 -p tcp -e 1540 -c 0 -i 21 -a 0 -x {0.0 2.0 14 ------- null}
h -t 2.2601296 -s 1 -d 2 -p tcp -e 1540 -c 0 -i 21 -a 0 -x {0.0 2.0 -1 ------- null}
r -t 2.2611296 -s 1 -d 2 -p tcp -e 1540 -c 0 -i 20 -a 0 -x {0.0 2.0 13 ------- null}
+ -t 2.2611296 -s 2 -d 1 -p ack -e 40 -c 0 -i 40 -a 0 -x {2.0 0.0 13 ------- null}
- -t 2.2611296 -s 2 -d 1 -p ack -e 40 -c 0 -i 40 -a 0 -x {2.0 0.0 13 ------- null}
h -t 2.2611296 -s 2 -d 1 -p ack -e 40 -c 0 -i 40 -a 0 -x {2.0 0.0 -1 ------- null}
r -t 2.2653296 -s 2 -d 1 -p ack -e 40 -c 0 -i 40 -a 0 -x {2.0 0.0 13 ------- null}
+ -t 2.2653296 -s 1 -d 0 -p ack -e 40 -c 0 -i 40 -a 0 -x {2.0 0.0 13 ------- null}
- -t 2.2653296 -s 1 -d 0 -p ack -e 40 -c 0 -i 40 -a 0 -x {2.0 0.0 13 ------- null}
h -t 2.2653296 -s 1 -d 0 -p ack -e 40 -c 0 -i 40 -a 0 -x {2.0 0.0 -1 ------- null}
r -t 2.3153328 -s 1 -d 0 -p ack -e 40 -c 0 -i 40 -a 0 -x {2.0 0.0 13 ------- null}
+ -t 2.3153328 -s 0 -d 1 -p tcp -e 1540 -c 0 -i 41 -a 0 -x {0.0 2.0 27 ------- null}
- -t 2.3153328 -s 0 -d 1 -p tcp -e 1540 -c 0 -i 41 -a 0 -x {0.0 2.0 27 ------- null}
h -t 2.3153328 -s 0 -d 1 -p tcp -e 1540 -c 0 -i 41 -a 0 -x {0.0 2.0 -1 ------- null}
+ -t 2.3153328 -s 0 -d 1 -p tcp -e 1540 -c 0 -i 42 -a 0 -x {0.0 2.0 28 ------- null}
- -t 2.315456 -s 0 -d 1 -p tcp -e 1540 -c 0 -i 42 -a 0 -x {0.0 2.0 28 ------- null}
h -t 2.315456 -s 0 -d 1 -p tcp -e 1540 -c 0 -i 42 -a 0 -x {0.0 2.0 -1 ------- null}
r -t 2.365456 -s 0 -d 1 -p tcp -e 1540 -c 0 -i 41 -a 0 -x {0.0 2.0 27 ------- null}
+ -t 2.365456 -s 1 -d 2 -p tcp -e 1540 -c 0 -i 41 -a 0 -x {0.0 2.0 27 ------- null}
r -t 2.3655792 -s 0 -d 1 -p tcp -e 1540 -c 0 -i 42 -a 0 -x {0.0 2.0 28 ------- null}
+ -t 2.3655792 -s 1 -d 2 -p tcp -e 1540 -c 0 -i 42 -a 0 -x {0.0 2.0 28 ------- null}
d -t 2.3655792 -s 1 -d 2 -p tcp -e 1540 -c 0 -i 42 -a 0 -x {0.0 2.0 28 ------- null}
- -t 2.3833296 -s 1 -d 2 -p tcp -e 1540 -c 0 -i 23 -a 0 -x {0.0 2.0 15 ------- null}
h -t 2.3833296 -s 1 -d 2 -p tcp -e 1540 -c 0 -i 23 -a 0 -x {0.0 2.0 -1 ------- null}
r -t 2.3843296 -s 1 -d 2 -p tcp -e 1540 -c 0 -i 21 -a 0 -x {0.0 2.0 14 ------- null}
+ -t 2.3843296 -s 2 -d 1 -p ack -e 40 -c 0 -i 43 -a 0 -x {2.0 0.0 14 ------- null}
- -t 2.3843296 -s 2 -d 1 -p ack -e 40 -c 0 -i 43 -a 0 -x {2.0 0.0 14 ------- null}
h -t 2.3843296 -s 2 -d 1 -p ack -e 40 -c 0 -i 43 -a 0 -x {2.0 0.0 -1 ------- null}
r -t 2.3885296 -s 2 -d 1 -p ack -e 40 -c 0 -i 43 -a 0 -x {2.0 0.0 14 ------- null}
+ -t 2.3885296 -s 1 -d 0 -p ack -e 40 -c 0 -i 43 -a 0 -x {2.0 0.0 14 ------- null}
- -t 2.3885296 -s 1 -d 0 -p ack -e 40 -c 0 -i 43 -a 0 -x {2.0 0.0 14 ------- null}
h -t 2.3885296 -s 1 -d 0 -p ack -e 40 -c 0 -i 43 -a 0 -x {2.0 0.0 -1 ------- null}
r -t 2.4385328 -s 1 -d 0 -p ack -e 40 -c 0 -i 43 -a 0 -x {2.0 0.0 14 ------- null}
+ -t 2.4385328 -s 0 -d 1 -p tcp -e 1540 -c 0 -i 44 -a 0 -x {0.0 2.0 29 ------- null}
- -t 2.4385328 -s 0 -d 1 -p tcp -e 1540 -c 0 -i 44 -a 0 -x {0.0 2.0 29 ------- null}
h -t 2.4385328 -s 0 -d 1 -p tcp -e 1540 -c 0 -i 44 -a 0 -x {0.0 2.0 -1 ------- null}
+ -t 2.4385328 -s 0 -d 1 -p tcp -e 1540 -c 0 -i 45 -a 0 -x {0.0 2.0 30 ------- null}
- -t 2.438656 -s 0 -d 1 -p tcp -e 1540 -c 0 -i 45 -a 0 -x {0.0 2.0 30 ------- null}
h -t 2.438656 -s 0 -d 1 -p tcp -e 1540 -c 0 -i 45 -a 0 -x {0.0 2.0 -1 ------- null}
r -t 2.488656 -s 0 -d 1 -p tcp -e 1540 -c 0 -i 44 -a 0 -x {0.0 2.0 29 ------- null}
+ -t 2.488656 -s 1 -d 2 -p tcp -e 1540 -c 0 -i 44 -a 0 -x {0.0 2.0 29 ------- null}
r -t 2.4887792 -s 0 -d 1 -p tcp -e 1540 -c 0 -i 45 -a 0 -x {0.0 2.0 30 ------- null}
+ -t 2.4887792 -s 1 -d 2 -p tcp -e 1540 -c 0 -i 45 -a 0 -x {0.0 2.0 30 ------- null}
d -t 2.4887792 -s 1 -d 2 -p tcp -e 1540 -c 0 -i 45 -a 0 -x {0.0 2.0 30 ------- null}
- -t 2.5065296 -s 1 -d 2 -p tcp -e 1540 -c 0 -i 24 -a 0 -x {0.0 2.0 16 ------- null}
h -t 2.5065296 -s 1 -d 2 -p tcp -e 1540 -c 0 -i 24 -a 0 -x {0.0 2.0 -1 ------- null}
r -t 2.5075296 -s 1 -d 2 -p tcp -e 1540 -c 0 -i 23 -a 0 -x {0.0 2.0 15 ------- null}
+ -t 2.5075296 -s 2 -d 1 -p ack -e 40 -c 0 -i 46 -a 0 -x {2.0 0.0 15 ------- null}
- -t 2.5075296 -s 2 -d 1 -p ack -e 40 -c 0 -i 46 -a 0 -x {2.0 0.0 15 ------- null}
h -t 2.5075296 -s 2 -d 1 -p ack -e 40 -c 0 -i 46 -a 0 -x {2.0 0.0 -1 ------- null}
r -t 2.5117296 -s 2 -d 1 -p ack -e 40 -c 0 -i 46 -a 0 -x {2.0 0.0 15 ------- null}
+ -t 2.5117296 -s 1 -d 0 -p ack -e 40 -c 0 -i 46 -a 0 -x {2.0 0.0 15 ------- null}
- -t 2.5117296 -s 1 -d 0 -p ack -e 40 -c 0 -i 46 -a 0 -x {2.0 0.0 15 ------- null}
h -t 2.5117296 -s 1 -d 0 -p ack -e 40 -c 0 -i 46 -a 0 -x {2.0 0.0 -1 ------- null}
r -t 2.5617328 -s 1 -d 0 -p ack -e 40 -c 0 -i 46 -a 0 -x {2.0 0.0 15 ------- null}
+ -t 2.5617328 -s 0 -d 1 -p tcp -e 1540 -c 0 -i 47 -a 0 -x {0.0 2.0 31 ------- null}
- -t 2.5617328 -s 0 -d 1 -p tcp -e 1540 -c 0 -i 47 -a 0 -x {0.0 2.0 31 ------- null}
h -t 2.5617328 -s 0 -d 1 -p tcp -e 1540 -c 0 -i 47 -a 0 -x {0.0 2.0 -1 ------- null}
+ -t 2.5617328 -s 0 -d 1 -p tcp -e 1540 -c 0 -i 48 -a 0 -x {0.0 2.0 32 ------- null}
- -t 2.561856 -s 0 -d 1 -p tcp -e 1540 -c 0 -i 48 -a 0 -x {0.0 2.0 32 ------- null}
h -t 2.561856 -s 0 -d 1 -p tcp -e 1540 -c 0 -i 48 -a 0 -x {0.0 2.0 -1 ------- null}
r -t 2.611856 -s 0 -d 1 -p tcp -e 1540 -c 0 -i 47 -a 0 -x {0.0 2.0 31 ------- null}
+ -t 2.611856 -s 1 -d 2 -p tcp -e 1540 -c 0 -i 47 -a 0 -x {0.0 2.0 31 ------- null}
r -t 2.6119792 -s 0 -d 1 -p tcp -e 1540 -c 0 -i 48 -a 0 -x {0.0 2.0 32 ------- null}
+ -t 2.6119792 -s 1 -d 2 -p tcp -e 1540 -c 0 -i 48 -a 0 -x {0.0 2.0 32 ------- null}
d -t 2.6119792 -s 1 -d 2 -p tcp -e 1540 -c 0 -i 48 -a 0 -x {0.0 2.0 32 ------- null}
- -t 2.6297296 -s 1 -d 2 -p tcp -e 1540 -c 0 -i 26 -a 0 -x {0.0 2.0 17 ------- null}
h -t 2.6297296 -s 1 -d 2 -p tcp -e 1540 -c 0 -i 26 -a 0 -x {0.0 2.0 -1 ------- null}
r -t 2.6307296 -s 1 -d 2 -p tcp -e 1540 -c 0 -i 24 -a 0 -x {0.0 2.0 16 ------- null}
+ -t 2.6307296 -s 2 -d 1 -p ack -e 40 -c 0 -i 49 -a 0 -x {2.0 0.0 16 ------- null}