+ 0.5 0 1 tcp 40 ------- 0 0.0 2.0 0 0
- 0.5 0 1 tcp 40 ------- 0 0.0 2.0 0 0
r 0.550003 0 1 tcp 40 ------- 0 0.0 2.0 0 0
+ 0.550003 1 2 tcp 40 ------- 0 0.0 2.0 0 0
- 0.550003 1 2 tcp 40 ------- 0 0.0 2.0 0 0
r 0.554203 1 2 tcp 40 ------- 0 0.0 2.0 0 0
+ 0.554203 2 1 ack 40 ------- 0 2.0 0.0 0 1
- 0.554203 2 1 ack 40 ------- 0 2.0 0.0 0 1
r 0.558403 2 1 ack 40 ------- 0 2.0 0.0 0 1
+ 0.558403 1 0 ack 40 ------- 0 2.0 0.0 0 1
- 0.558403 1 0 ack 40 ------- 0 2.0 0.0 0 1
r 0.608406 1 0 ack 40 ------- 0 2.0 0.0 0 1
+ 0.608406 0 1 tcp 1540 ------- 0 0.0 2.0 1 2
- 0.608406 0 1 tcp 1540 ------- 0 0.0 2.0 1 2
+ 0.608406 0 1 tcp 1540 ------- 0 0.0 2.0 2 3
- 0.60853 0 1 tcp 1540 ------- 0 0.0 2.0 2 3
r 0.65853 0 1 tcp 1540 ------- 0 0.0 2.0 1 2
+ 0.65853 1 2 tcp 1540 ------- 0 0.0 2.0 1 2
- 0.65853 1 2 tcp 1540 ------- 0 0.0 2.0 1 2
r 0.658653 0 1 tcp 1540 ------- 0 0.0 2.0 2 3
+ 0.658653 1 2 tcp 1540 ------- 0 0.0 2.0 2 3
- 0.78173 1 2 tcp 1540 ------- 0 0.0 2.0 2 3
r 0.78273 1 2 tcp 1540 ------- 0 0.0 2.0 1 2
+ 0.78273 2 1 ack 40 ------- 0 2.0 0.0 1 4
- 0.78273 2 1 ack 40 ------- 0 2.0 0.0 1 4
r 0.78693 2 1 ack 40 ------- 0 2.0 0.0 1 4
+ 0.78693 1 0 ack 40 ------- 0 2.0 0.0 1 4
- 0.78693 1 0 ack 40 ------- 0 2.0 0.0 1 4
r 0.836933 1 0 ack 40 ------- 0 2.0 0.0 1 4
+ 0.836933 0 1 tcp 1540 ------- 0 0.0 2.0 3 5
- 0.836933 0 1 tcp 1540 ------- 0 0.0 2.0 3 5
+ 0.836933 0 1 tcp 1540 ------- 0 0.0 2.0 4 6
- 0.837056 0 1 tcp 1540 ------- 0 0.0 2.0 4 6
r 0.887056 0 1 tcp 1540 ------- 0 0.0 2.0 3 5
+ 0.887056 1 2 tcp 1540 ------- 0 0.0 2.0 3 5
r 0.887179 0 1 tcp 1540 ------- 0 0.0 2.0 4 6
+ 0.887179 1 2 tcp 1540 ------- 0 0.0 2.0 4 6
- 0.90493 1 2 tcp 1540 ------- 0 0.0 2.0 3 5
r 0.90593 1 2 tcp 1540 ------- 0 0.0 2.0 2 3
+ 0.90593 2 1 ack 40 ------- 0 2.0 0.0 2 7
- 0.90593 2 1 ack 40 ------- 0 2.0 0.0 2 7
r 0.91013 2 1 ack 40 ------- 0 2.0 0.0 2 7
+ 0.91013 1 0 ack 40 ------- 0 2.0 0.0 2 7
- 0.91013 1 0 ack 40 ------- 0 2.0 0.0 2 7
r 0.960133 1 0 ack 40 ------- 0 2.0 0.0 2 7
+ 0.960133 0 1 tcp 1540 ------- 0 0.0 2.0 5 8
- 0.960133 0 1 tcp 1540 ------- 0 0.0 2.0 5 8
+ 0.960133 0 1 tcp 1540 ------- 0 0.0 2.0 6 9
- 0.960256 0 1 tcp 1540 ------- 0 0.0 2.0 6 9
r 1.010256 0 1 tcp 1540 ------- 0 0.0 2.0 5 8
+ 1.010256 1 2 tcp 1540 ------- 0 0.0 2.0 5 8
r 1.010379 0 1 tcp 1540 ------- 0 0.0 2.0 6 9
+ 1.010379 1 2 tcp 1540 ------- 0 0.0 2.0 6 9
- 1.02813 1 2 tcp 1540 ------- 0 0.0 2.0 4 6
r 1.02913 1 2 tcp 1540 ------- 0 0.0 2.0 3 5
+ 1.02913 2 1 ack 40 ------- 0 2.0 0.0 3 10
- 1.02913 2 1 ack 40 ------- 0 2.0 0.0 3 10
r 1.03333 2 1 ack 40 ------- 0 2.0 0.0 3 10
+ 1.03333 1 0 ack 40 ------- 0 2.0 0.0 3 10
- 1.03333 1 0 ack 40 ------- 0 2.0 0.0 3 10
r 1.083333 1 0 ack 40 ------- 0 2.0 0.0 3 10
+ 1.083333 0 1 tcp 1540 ------- 0 0.0 2.0 7 11
- 1.083333 0 1 tcp 1540 ------- 0 0.0 2.0 7 11
+ 1.083333 0 1 tcp 1540 ------- 0 0.0 2.0 8 12
- 1.083456 0 1 tcp 1540 ------- 0 0.0 2.0 8 12
r 1.133456 0 1 tcp 1540 ------- 0 0.0 2.0 7 11
+ 1.133456 1 2 tcp 1540 ------- 0 0.0 2.0 7 11
r 1.133579 0 1 tcp 1540 ------- 0 0.0 2.0 8 12
+ 1.133579 1 2 tcp 1540 ------- 0 0.0 2.0 8 12
- 1.15133 1 2 tcp 1540 ------- 0 0.0 2.0 5 8
r 1.15233 1 2 tcp 1540 ------- 0 0.0 2.0 4 6
+ 1.15233 2 1 ack 40 ------- 0 2.0 0.0 4 13
- 1.15233 2 1 ack 40 ------- 0 2.0 0.0 4 13
r 1.15653 2 1 ack 40 ------- 0 2.0 0.0 4 13
+ 1.15653 1 0 ack 40 ------- 0 2.0 0.0 4 13
- 1.15653 1 0 ack 40 ------- 0 2.0 0.0 4 13
r 1.206533 1 0 ack 40 ------- 0 2.0 0.0 4 13
+ 1.206533 0 1 tcp 1540 ------- 0 0.0 2.0 9 14
- 1.206533 0 1 tcp 1540 ------- 0 0.0 2.0 9 14
+ 1.206533 0 1 tcp 1540 ------- 0 0.0 2.0 10 15
- 1.206656 0 1 tcp 1540 ------- 0 0.0 2.0 10 15
r 1.256656 0 1 tcp 1540 ------- 0 0.0 2.0 9 14
+ 1.256656 1 2 tcp 1540 ------- 0 0.0 2.0 9 14
r 1.256779 0 1 tcp 1540 ------- 0 0.0 2.0 10 15
+ 1.256779 1 2 tcp 1540 ------- 0 0.0 2.0 10 15
- 1.27453 1 2 tcp 1540 ------- 0 0.0 2.0 6 9
r 1.27553 1 2 tcp 1540 ------- 0 0.0 2.0 5 8
+ 1.27553 2 1 ack 40 ------- 0 2.0 0.0 5 16
- 1.27553 2 1 ack 40 ------- 0 2.0 0.0 5 16
r 1.27973 2 1 ack 40 ------- 0 2.0 0.0 5 16
+ 1.27973 1 0 ack 40 ------- 0 2.0 0.0 5 16
- 1.27973 1 0 ack 40 ------- 0 2.0 0.0 5 16
r 1.329733 1 0 ack 40 ------- 0 2.0 0.0 5 16
+ 1.329733 0 1 tcp 1540 ------- 0 0.0 2.0 11 17
- 1.329733 0 1 tcp 1540 ------- 0 0.0 2.0 11 17
+ 1.329733 0 1 tcp 1540 ------- 0 0.0 2.0 12 18
- 1.329856 0 1 tcp 1540 ------- 0 0.0 2.0 12 18
r 1.379856 0 1 tcp 1540 ------- 0 0.0 2.0 11 17
+ 1.379856 1 2 tcp 1540 ------- 0 0.0 2.0 11 17
r 1.379979 0 1 tcp 1540 ------- 0 0.0 2.0 12 18
+ 1.379979 1 2 tcp 1540 ------- 0 0.0 2.0 12 18
- 1.39773 1 2 tcp 1540 ------- 0 0.0 2.0 7 11
r 1.39873 1 2 tcp 1540 ------- 0 0.0 2.0 6 9
+ 1.39873 2 1 ack 40 ------- 0 2.0 0.0 6 19
- 1.39873 2 1 ack 40 ------- 0 2.0 0.0 6 19
r 1.40293 2 1 ack 40 ------- 0 2.0 0.0 6 19
+ 1.40293 1 0 ack 40 ------- 0 2.0 0.0 6 19
- 1.40293 1 0 ack 40 ------- 0 2.0 0.0 6 19
r 1.452933 1 0 ack 40 ------- 0 2.0 0.0 6 19
+ 1.452933 0 1 tcp 1540 ------- 0 0.0 2.0 13 20
- 1.452933 0 1 tcp 1540 ------- 0 0.0 2.0 13 20
+ 1.452933 0 1 tcp 1540 ------- 0 0.0 2.0 14 21
- 1.453056 0 1 tcp 1540 ------- 0 0.0 2.0 14 21
r 1.503056 0 1 tcp 1540 ------- 0 0.0 2.0 13 20
+ 1.503056 1 2 tcp 1540 ------- 0 0.0 2.0 13 20
r 1.503179 0 1 tcp 1540 ------- 0 0.0 2.0 14 21
+ 1.503179 1 2 tcp 1540 ------- 0 0.0 2.0 14 21
- 1.52093 1 2 tcp 1540 ------- 0 0.0 2.0 8 12
r 1.52193 1 2 tcp 1540 ------- 0 0.0 2.0 7 11
+ 1.52193 2 1 ack 40 ------- 0 2.0 0.0 7 22
- 1.52193 2 1 ack 40 ------- 0 2.0 0.0 7 22
r 1.52613 2 1 ack 40 ------- 0 2.0 0.0 7 22
+ 1.52613 1 0 ack 40 ------- 0 2.0 0.0 7 22
- 1.52613 1 0 ack 40 ------- 0 2.0 0.0 7 22
r 1.576133 1 0 ack 40 ------- 0 2.0 0.0 7 22
+ 1.576133 0 1 tcp 1540 ------- 0 0.0 2.0 15 23
- 1.576133 0 1 tcp 1540 ------- 0 0.0 2.0 15 23
+ 1.576133 0 1 tcp 1540 ------- 0 0.0 2.0 16 24
- 1.576256 0 1 tcp 1540 ------- 0 0.0 2.0 16 24
r 1.626256 0 1 tcp 1540 ------- 0 0.0 2.0 15 23
+ 1.626256 1 2 tcp 1540 ------- 0 0.0 2.0 15 23
r 1.626379 0 1 tcp 1540 ------- 0 0.0 2.0 16 24
+ 1.626379 1 2 tcp 1540 ------- 0 0.0 2.0 16 24
- 1.64413 1 2 tcp 1540 ------- 0 0.0 2.0 9 14
r 1.64513 1 2 tcp 1540 ------- 0 0.0 2.0 8 12
+ 1.64513 2 1 ack 40 ------- 0 2.0 0.0 8 25
- 1.64513 2 1 ack 40 ------- 0 2.0 0.0 8 25
r 1.64933 2 1 ack 40 ------- 0 2.0 0.0 8 25
+ 1.64933 1 0 ack 40 ------- 0 2.0 0.0 8 25
- 1.64933 1 0 ack 40 ------- 0 2.0 0.0 8 25
r 1.699333 1 0 ack 40 ------- 0 2.0 0.0 8 25
+ 1.699333 0 1 tcp 1540 ------- 0 0.0 2.0 17 26
- 1.699333 0 1 tcp 1540 ------- 0 0.0 2.0 17 26
+ 1.699333 0 1 tcp 1540 ------- 0 0.0 2.0 18 27
- 1.699456 0 1 tcp 1540 ------- 0 0.0 2.0 18 27
r 1.749456 0 1 tcp 1540 ------- 0 0.0 2.0 17 26
+ 1.749456 1 2 tcp 1540 ------- 0 0.0 2.0 17 26
r 1.749579 0 1 tcp 1540 ------- 0 0.0 2.0 18 27
+ 1.749579 1 2 tcp 1540 ------- 0 0.0 2.0 18 27
- 1.76733 1 2 tcp 1540 ------- 0 0.0 2.0 10 15
r 1.76833 1 2 tcp 1540 ------- 0 0.0 2.0 9 14
+ 1.76833 2 1 ack 40 ------- 0 2.0 0.0 9 28
- 1.76833 2 1 ack 40 ------- 0 2.0 0.0 9 28
r 1.77253 2 1 ack 40 ------- 0 2.0 0.0 9 28
+ 1.77253 1 0 ack 40 ------- 0 2.0 0.0 9 28
- 1.77253 1 0 ack 40 ------- 0 2.0 0.0 9 28
r 1.822533 1 0 ack 40 ------- 0 2.0 0.0 9 28
+ 1.822533 0 1 tcp 1540 ------- 0 0.0 2.0 19 29
- 1.822533 0 1 tcp 1540 ------- 0 0.0 2.0 19 29
+ 1.822533 0 1 tcp 1540 ------- 0 0.0 2.0 20 30
- 1.822656 0 1 tcp 1540 ------- 0 0.0 2.0 20 30
r 1.872656 0 1 tcp 1540 ------- 0 0.0 2.0 19 29
+ 1.872656 1 2 tcp 1540 ------- 0 0.0 2.0 19 29
r 1.872779 0 1 tcp 1540 ------- 0 0.0 2.0 20 30
+ 1.872779 1 2 tcp 1540 ------- 0 0.0 2.0 20 30
d 1.872779 1 2 tcp 1540 ------- 0 0.0 2.0 20 30
- 1.89053 1 2 tcp 1540 ------- 0 0.0 2.0 11 17
r 1.89153 1 2 tcp 1540 ------- 0 0.0 2.0 10 15
+ 1.89153 2 1 ack 40 ------- 0 2.0 0.0 10 31
- 1.89153 2 1 ack 40 ------- 0 2.0 0.0 10 31
r 1.89573 2 1 ack 40 ------- 0 2.0 0.0 10 31
+ 1.89573 1 0 ack 40 ------- 0 2.0 0.0 10 31
- 1.89573 1 0 ack 40 ------- 0 2.0 0.0 10 31
r 1.945733 1 0 ack 40 ------- 0 2.0 0.0 10 31
+ 1.945733 0 1 tcp 1540 ------- 0 0.0 2.0 21 32
- 1.945733 0 1 tcp 1540 ------- 0 0.0 2.0 21 32
+ 1.945733 0 1 tcp 1540 ------- 0 0.0 2.0 22 33
- 1.945856 0 1 tcp 1540 ------- 0 0.0 2.0 22 33
r 1.995856 0 1 tcp 1540 ------- 0 0.0 2.0 21 32
+ 1.995856 1 2 tcp 1540 ------- 0 0.0 2.0 21 32
r 1.995979 0 1 tcp 1540 ------- 0 0.0 2.0 22 33
+ 1.995979 1 2 tcp 1540 ------- 0 0.0 2.0 22 33
d 1.995979 1 2 tcp 1540 ------- 0 0.0 2.0 22 33
- 2.01373 1 2 tcp 1540 ------- 0 0.0 2.0 12 18
r 2.01473 1 2 tcp 1540 ------- 0 0.0 2.0 11 17
+ 2.01473 2 1 ack 40 ------- 0 2.0 0.0 11 34
- 2.01473 2 1 ack 40 ------- 0 2.0 0.0 11 34
r 2.01893 2 1 ack 40 ------- 0 2.0 0.0 11 34
+ 2.01893 1 0 ack 40 ------- 0 2.0 0.0 11 34
- 2.01893 1 0 ack 40 ------- 0 2.0 0.0 11 34
r 2.068933 1 0 ack 40 ------- 0 2.0 0.0 11 34
+ 2.068933 0 1 tcp 1540 ------- 0 0.0 2.0 23 35
- 2.068933 0 1 tcp 1540 ------- 0 0.0 2.0 23 35
+ 2.068933 0 1 tcp 1540 ------- 0 0.0 2.0 24 36
- 2.069056 0 1 tcp 1540 ------- 0 0.0 2.0 24 36
r 2.119056 0 1 tcp 1540 ------- 0 0.0 2.0 23 35
+ 2.119056 1 2 tcp 1540 ------- 0 0.0 2.0 23 35
r 2.119179 0 1 tcp 1540 ------- 0 0.0 2.0 24 36
+ 2.119179 1 2 tcp 1540 ------- 0 0.0 2.0 24 36
d 2.119179 1 2 tcp 1540 ------- 0 0.0 2.0 24 36
- 2.13693 1 2 tcp 1540 ------- 0 0.0 2.0 13 20
r 2.13793 1 2 tcp 1540 ------- 0 0.0 2.0 12 18
+ 2.13793 2 1 ack 40 ------- 0 2.0 0.0 12 37
- 2.13793 2 1 ack 40 ------- 0 2.0 0.0 12 37
r 2.14213 2 1 ack 40 ------- 0 2.0 0.0 12 37
+ 2.14213 1 0 ack 40 ------- 0 2.0 0.0 12 37
- 2.14213 1 0 ack 40 ------- 0 2.0 0.0 12 37
r 2.192133 1 0 ack 40 ------- 0 2.0 0.0 12 37
+ 2.192133 0 1 tcp 1540 ------- 0 0.0 2.0 25 38
- 2.192133 0 1 tcp 1540 ------- 0 0.0 2.0 25 38
+ 2.192133 0 1 tcp 1540 ------- 0 0.0 2.0 26 39
- 2.192256 0 1 tcp 1540 ------- 0 0.0 2.0 26 39
r 2.242256 0 1 tcp 1540 ------- 0 0.0 2.0 25 38
+ 2.242256 1 2 tcp 1540 ------- 0 0.0 2.0 25 38
r 2.242379 0 1 tcp 1540 ------- 0 0.0 2.0 26 39
+ 2.242379 1 2 tcp 1540 ------- 0 0.0 2.0 26 39
d 2.242379 1 2 tcp 1540 ------- 0 0.0 2.0 26 39
- 2.26013 1 2 tcp 1540 ------- 0 0.0 2.0 14 21
r 2.26113 1 2 tcp 1540 ------- 0 0.0 2.0 13 20
+ 2.26113 2 1 ack 40 ------- 0 2.0 0.0 13 40
- 2.26113 2 1 ack 40 ------- 0 2.0 0.0 13 40
r 2.26533 2 1 ack 40 ------- 0 2.0 0.0 13 40
+ 2.26533 1 0 ack 40 ------- 0 2.0 0.0 13 40
- 2.26533 1 0 ack 40 ------- 0 2.0 0.0 13 40
r 2.315333 1 0 ack 40 ------- 0 2.0 0.0 13 40
+ 2.315333 0 1 tcp 1540 ------- 0 0.0 2.0 27 41
- 2.315333 0 1 tcp 1540 ------- 0 0.0 2.0 27 41
+ 2.315333 0 1 tcp 1540 ------- 0 0.0 2.0 28 42
- 2.315456 0 1 tcp 1540 ------- 0 0.0 2.0 28 42
r 2.365456 0 1 tcp 1540 ------- 0 0.0 2.0 27 41
+ 2.365456 1 2 tcp 1540 ------- 0 0.0 2.0 27 41
r 2.365579 0 1 tcp 1540 ------- 0 0.0 2.0 28 42
+ 2.365579 1 2 tcp 1540 ------- 0 0.0 2.0 28 42
d 2.365579 1 2 tcp 1540 ------- 0 0.0 2.0 28 42
- 2.38333 1 2 tcp 1540 ------- 0 0.0 2.0 15 23
r 2.38433 1 2 tcp 1540 ------- 0 0.0 2.0 14 21
+ 2.38433 2 1 ack 40 ------- 0 2.0 0.0 14 43
- 2.38433 2 1 ack 40 ------- 0 2.0 0.0 14 43
r 2.38853 2 1 ack 40 ------- 0 2.0 0.0 14 43
+ 2.38853 1 0 ack 40 ------- 0 2.0 0.0 14 43
- 2.38853 1 0 ack 40 ------- 0 2.0 0.0 14 43
r 2.438533 1 0 ack 40 ------- 0 2.0 0.0 14 43
+ 2.438533 0 1 tcp 1540 ------- 0 0.0 2.0 29 44
- 2.438533 0 1 tcp 1540 ------- 0 0.0 2.0 29 44
+ 2.438533 0 1 tcp 1540 ------- 0 0.0 2.0 30 45
- 2.438656 0 1 tcp 1540 ------- 0 0.0 2.0 30 45
r 2.488656 0 1 tcp 1540 ------- 0 0.0 2.0 29 44
+ 2.488656 1 2 tcp 1540 ------- 0 0.0 2.0 29 44
r 2.488779 0 1 tcp 1540 ------- 0 0.0 2.0 30 45
+ 2.488779 1 2 tcp 1540 ------- 0 0.0 2.0 30 45
d 2.488779 1 2 tcp 1540 ------- 0 0.0 2.0 30 45
- 2.50653 1 2 tcp 1540 ------- 0 0.0 2.0 16 24
r 2.50753 1 2 tcp 1540 ------- 0 0.0 2.0 15 23
+ 2.50753 2 1 ack 40 ------- 0 2.0 0.0 15 46
- 2.50753 2 1 ack 40 ------- 0 2.0 0.0 15 46
r 2.51173 2 1 ack 40 ------- 0 2.0 0.0 15 46
+ 2.51173 1 0 ack 40 ------- 0 2.0 0.0 15 46
- 2.51173 1 0 ack 40 ------- 0 2.0 0.0 15 46
r 2.561733 1 0 ack 40 ------- 0 2.0 0.0 15 46
+ 2.561733 0 1 tcp 1540 ------- 0 0.0 2.0 31 47
- 2.561733 0 1 tcp 1540 ------- 0 0.0 2.0 31 47
+ 2.561733 0 1 tcp 1540 ------- 0 0.0 2.0 32 48
- 2.561856 0 1 tcp 1540 ------- 0 0.0 2.0 32 48
r 2.611856 0 1 tcp 1540 ------- 0 0.0 2.0 31 47
+ 2.611856 1 2 tcp 1540 ------- 0 0.0 2.0 31 47
r 2.611979 0 1 tcp 1540 ------- 0 0.0 2.0 32 48
+ 2.611979 1 2 tcp 1540 ------- 0 0.0 2.0 32 48
d 2.611979 1 2 tcp 1540 ------- 0 0.0 2.0 32 48
- 2.62973 1 2 tcp 1540 ------- 0 0.0 2.0 17 26
r 2.63073 1 2 tcp 1540 ------- 0 0.0 2.0 16 24
+ 2.63073 2 1 ack 40 ------- 0 2.0 0.0 16 49
- 2.63073 2 1 ack 40 ------- 0 2.0 0.0 16 49
r 2.63493 2 1 ack 40 ------- 0 2.0 0.0 16 49
+ 2.63493 1 0 ack 40 ------- 0 2.0 0.0 16 49
- 2.63493 1 0 ack 40 ------- 0 2.0 0.0 16 49
r 2.684933 1 0 ack 40 ------- 0 2.0 0.0 16 49
+ 2.684933 0 1 tcp 1540 ------- 0 0.0 2.0 33 50
- 2.684933 0 1 tcp 1540 ------- 0 0.0 2.0 33 50
+ 2.684933 0 1 tcp 1540 ------- 0 0.0 2.0 34 51
- 2.685056 0 1 tcp 1540 ------- 0 0.0 2.0 34 51
r 2.735056 0 1 tcp 1540 ------- 0 0.0 2.0 33 50
+ 2.735056 1 2 tcp 1540 ------- 0 0.0 2.0 33 50
r 2.735179 0 1 tcp 1540 ------- 0 0.0 2.0 34 51
+ 2.735179 1 2 tcp 1540 ------- 0 0.0 2.0 34 51
d 2.735179 1 2 tcp 1540 ------- 0 0.0 2.0 34 51
- 2.75293 1 2 tcp 1540 ------- 0 0.0 2.0 18 27
r 2.75393 1 2 tcp 1540 ------- 0 0.0 2.0 17 26
+ 2.75393 2 1 ack 40 ------- 0 2.0 0.0 17 52
- 2.75393 2 1 ack 40 ------- 0 2.0 0.0 17 52
r 2.75813 2 1 ack 40 ------- 0 2.0 0.0 17 52
+ 2.75813 1 0 ack 40 ------- 0 2.0 0.0 17 52
- 2.75813 1 0 ack 40 ------- 0 2.0 0.0 17 52
r 2.808133 1 0 ack 40 ------- 0 2.0 0.0 17 52
+ 2.808133 0 1 tcp 1540 ------- 0 0.0 2.0 35 53
- 2.808133 0 1 tcp 1540 ------- 0 0.0 2.0 35 53
+ 2.808133 0 1 tcp 1540 ------- 0 0.0 2.0 36 54
- 2.808256 0 1 tcp 1540 ------- 0 0.0 2.0 36 54
r 2.858256 0 1 tcp 1540 ------- 0 0.0 2.0 35 53
+ 2.858256 1 2 tcp 1540 ------- 0 0.0 2.0 35 53
r 2.858379 0 1 tcp 1540 ------- 0 0.0 2.0 36 54
+ 2.858379 1 2 tcp 1540 ------- 0 0.0 2.0 36 54
d 2.858379 1 2 tcp 1540 ------- 0 0.0 2.0 36 54
- 2.87613 1 2 tcp 1540 ------- 0 0.0 2.0 19 29
r 2.87713 1 2 tcp 1540 ------- 0 0.0 2.0 18 27
+ 2.87713 2 1 ack 40 ------- 0 2.0 0.0 18 55
- 2.87713 2 1 ack 40 ------- 0 2.0 0.0 18 55
r 2.88133 2 1 ack 40 ------- 0 2.0 0.0 18 55
+ 2.88133 1 0 ack 40 ------- 0 2.0 0.0 18 55
- 2.88133 1 0 ack 40 ------- 0 2.0 0.0 18 55
r 2.931333 1 0 ack 40 ------- 0 2.0 0.0 18 55
+ 2.931333 0 1 tcp 1540 ------- 0 0.0 2.0 37 56
- 2.931333 0 1 tcp 1540 ------- 0 0.0 2.0 37 56
+ 2.931333 0 1 tcp 1540 ------- 0 0.0 2.0 38 57
- 2.931456 0 1 tcp 1540 ------- 0 0.0 2.0 38 57
r 2.981456 0 1 tcp 1540 ------- 0 0.0 2.0 37 56
+ 2.981456 1 2 tcp 1540 ------- 0 0.0 2.0 37 56
r 2.981579 0 1 tcp 1540 ------- 0 0.0 2.0 38 57
+ 2.981579 1 2 tcp 1540 ------- 0 0.0 2.0 38 57
d 2.981579 1 2 tcp 1540 ------- 0 0.0 2.0 38 57
- 2.99933 1 2 tcp 1540 ------- 0 0.0 2.0 21 32
r 3.00033 1 2 tcp 1540 ------- 0 0.0 2.0 19 29
+ 3.00033 2 1 ack 40 ------- 0 2.0 0.0 19 58
- 3.00033 2 1 ack 40 ------- 0 2.0 0.0 19 58
r 3.00453 2 1 ack 40 ------- 0 2.0 0.0 19 58
+ 3.00453 1 0 ack 40 ------- 0 2.0 0.0 19 58
- 3.00453 1 0 ack 40 ------- 0 2.0 0.0 19 58
r 3.054533 1 0 ack 40 ------- 0 2.0 0.0 19 58
+ 3.054533 0 1 tcp 1540 ------- 0 0.0 2.0 39 59
- 3.054533 0 1 tcp 1540 ------- 0 0.0 2.0 39 59
r 3.104656 0 1 tcp 1540 ------- 0 0.0 2.0 39 59
+ 3.104656 1 2 tcp 1540 ------- 0 0.0 2.0 39 59
- 3.12253 1 2 tcp 1540 ------- 0 0.0 2.0 23 35
r 3.12353 1 2 tcp 1540 ------- 0 0.0 2.0 21 32
+ 3.12353 2 1 ack 40 ------- 0 2.0 0.0 19 60
- 3.12353 2 1 ack 40 ------- 0 2.0 0.0 19 60
r 3.12773 2 1 ack 40 ------- 0 2.0 0.0 19 60
+ 3.12773 1 0 ack 40 ------- 0 2.0 0.0 19 60
- 3.12773 1 0 ack 40 ------- 0 2.0 0.0 19 60
r 3.177733 1 0 ack 40 ------- 0 2.0 0.0 19 60
- 3.24573 1 2 tcp 1540 ------- 0 0.0 2.0 25 38
r 3.24673 1 2 tcp 1540 ------- 0 0.0 2.0 23 35
+ 3.24673 2 1 ack 40 ------- 0 2.0 0.0 19 61
- 3.24673 2 1 ack 40 ------- 0 2.0 0.0 19 61
r 3.25093 2 1 ack 40 ------- 0 2.0 0.0 19 61
+ 3.25093 1 0 ack 40 ------- 0 2.0 0.0 19 61
- 3.25093 1 0 ack 40 ------- 0 2.0 0.0 19 61
r 3.300933 1 0 ack 40 ------- 0 2.0 0.0 19 61
- 3.36893 1 2 tcp 1540 ------- 0 0.0 2.0 27 41
r 3.36993 1 2 tcp 1540 ------- 0 0.0 2.0 25 38
+ 3.36993 2 1 ack 40 ------- 0 2.0 0.0 19 62
- 3.36993 2 1 ack 40 ------- 0 2.0 0.0 19 62
r 3.37413 2 1 ack 40 ------- 0 2.0 0.0 19 62
+ 3.37413 1 0 ack 40 ------- 0 2.0 0.0 19 62
- 3.37413 1 0 ack 40 ------- 0 2.0 0.0 19 62
r 3.424133 1 0 ack 40 ------- 0 2.0 0.0 19 62
+ 3.424133 0 1 tcp 1540 ---A--- 0 0.0 2.0 20 63
- 3.424133 0 1 tcp 1540 ---A--- 0 0.0 2.0 20 63
r 3.474256 0 1 tcp 1540 ---A--- 0 0.0 2.0 20 63
+ 3.474256 1 2 tcp 1540 ---A--- 0 0.0 2.0 20 63
- 3.49213 1 2 tcp 1540 ------- 0 0.0 2.0 29 44
r 3.49313 1 2 tcp 1540 ------- 0 0.0 2.0 27 41
+ 3.49313 2 1 ack 40 ------- 0 2.0 0.0 19 64
- 3.49313 2 1 ack 40 ------- 0 2.0 0.0 19 64
r 3.49733 2 1 ack 40 ------- 0 2.0 0.0 19 64
+ 3.49733 1 0 ack 40 ------- 0 2.0 0.0 19 64
- 3.49733 1 0 ack 40 ------- 0 2.0 0.0 19 64
r 3.547333 1 0 ack 40 ------- 0 2.0 0.0 19 64
- 3.61533 1 2 tcp 1540 ------- 0 0.0 2.0 31 47
r 3.61633 1 2 tcp 1540 ------- 0 0.0 2.0 29 44
+ 3.61633 2 1 ack 40 ------- 0 2.0 0.0 19 65
- 3.61633 2 1 ack 40 ------- 0 2.0 0.0 19 65
r 3.62053 2 1 ack 40 ------- 0 2.0 0.0 19 65
+ 3.62053 1 0 ack 40 ------- 0 2.0 0.0 19 65
- 3.62053 1 0 ack 40 ------- 0 2.0 0.0 19 65
r 3.670533 1 0 ack 40 ------- 0 2.0 0.0 19 65
- 3.73853 1 2 tcp 1540 ------- 0 0.0 2.0 33 50
r 3.73953 1 2 tcp 1540 ------- 0 0.0 2.0 31 47
+ 3.73953 2 1 ack 40 ------- 0 2.0 0.0 19 66
- 3.73953 2 1 ack 40 ------- 0 2.0 0.0 19 66
r 3.74373 2 1 ack 40 ------- 0 2.0 0.0 19 66
+ 3.74373 1 0 ack 40 ------- 0 2.0 0.0 19 66
- 3.74373 1 0 ack 40 ------- 0 2.0 0.0 19 66
r 3.793733 1 0 ack 40 ------- 0 2.0 0.0 19 66
- 3.86173 1 2 tcp 1540 ------- 0 0.0 2.0 35 53
r 3.86273 1 2 tcp 1540 ------- 0 0.0 2.0 33 50
+ 3.86273 2 1 ack 40 ------- 0 2.0 0.0 19 67
- 3.86273 2 1 ack 40 ------- 0 2.0 0.0 19 67
r 3.86693 2 1 ack 40 ------- 0 2.0 0.0 19 67
+ 3.86693 1 0 ack 40 ------- 0 2.0 0.0 19 67
- 3.86693 1 0 ack 40 ------- 0 2.0 0.0 19 67
r 3.916933 1 0 ack 40 ------- 0 2.0 0.0 19 67
- 3.98493 1 2 tcp 1540 ------- 0 0.0 2.0 37 56
r 3.98593 1 2 tcp 1540 ------- 0 0.0 2.0 35 53
+ 3.98593 2 1 ack 40 ------- 0 2.0 0.0 19 68
- 3.98593 2 1 ack 40 ------- 0 2.0 0.0 19 68
r 3.99013 2 1 ack 40 ------- 0 2.0 0.0 19 68
+ 3.99013 1 0 ack 40 ------- 0 2.0 0.0 19 68
- 3.99013 1 0 ack 40 ------- 0 2.0 0.0 19 68
r 4.040133 1 0 ack 40 ------- 0 2.0 0.0 19 68
- 4.10813 1 2 tcp 1540 ------- 0 0.0 2.0 39 59
r 4.10913 1 2 tcp 1540 ------- 0 0.0 2.0 37 56
+ 4.10913 2 1 ack 40 ------- 0 2.0 0.0 19 69
- 4.10913 2 1 ack 40 ------- 0 2.0 0.0 19 69
r 4.11333 2 1 ack 40 ------- 0 2.0 0.0 19 69
+ 4.11333 1 0 ack 40 ------- 0 2.0 0.0 19 69
- 4.11333 1 0 ack 40 ------- 0 2.0 0.0 19 69
r 4.163333 1 0 ack 40 ------- 0 2.0 0.0 19 69
- 4.23133 1 2 tcp 1540 ---A--- 0 0.0 2.0 20 63
r 4.23233 1 2 tcp 1540 ------- 0 0.0 2.0 39 59
+ 4.23233 2 1 ack 40 ------- 0 2.0 0.0 19 70
- 4.23233 2 1 ack 40 ------- 0 2.0 0.0 19 70
r 4.23653 2 1 ack 40 ------- 0 2.0 0.0 19 70
+ 4.23653 1 0 ack 40 ------- 0 2.0 0.0 19 70
- 4.23653 1 0 ack 40 ------- 0 2.0 0.0 19 70
r 4.286533 1 0 ack 40 ------- 0 2.0 0.0 19 70
r 4.35553 1 2 tcp 1540 ---A--- 0 0.0 2.0 20 63
+ 4.35553 2 1 ack 40 ------- 0 2.0 0.0 21 71
- 4.35553 2 1 ack 40 ------- 0 2.0 0.0 21 71
r 4.35973 2 1 ack 40 ------- 0 2.0 0.0 21 71
+ 4.35973 1 0 ack 40 ------- 0 2.0 0.0 21 71
- 4.35973 1 0 ack 40 ------- 0 2.0 0.0 21 71
r 4.409733 1 0 ack 40 ------- 0 2.0 0.0 21 71
+ 5.989733 0 1 tcp 1540 ---A--- 0 0.0 2.0 22 72
- 5.989733 0 1 tcp 1540 ---A--- 0 0.0 2.0 22 72
r 6.039856 0 1 tcp 1540 ---A--- 0 0.0 2.0 22 72
+ 6.039856 1 2 tcp 1540 ---A--- 0 0.0 2.0 22 72
- 6.039856 1 2 tcp 1540 ---A--- 0 0.0 2.0 22 72
r 6.164056 1 2 tcp 1540 ---A--- 0 0.0 2.0 22 72
+ 6.164056 2 1 ack 40 ------- 0 2.0 0.0 23 73
- 6.164056 2 1 ack 40 ------- 0 2.0 0.0 23 73
r 6.168256 2 1 ack 40 ------- 0 2.0 0.0 23 73
+ 6.168256 1 0 ack 40 ------- 0 2.0 0.0 23 73
- 6.168256 1 0 ack 40 ------- 0 2.0 0.0 23 73
r 6.218259 1 0 ack 40 ------- 0 2.0 0.0 23 73
+ 6.218259 0 1 tcp 1540 ------- 0 0.0 2.0 24 74
- 6.218259 0 1 tcp 1540 ------- 0 0.0 2.0 24 74
+ 6.218259 0 1 tcp 1540 ------- 0 0.0 2.0 25 75
- 6.218382 0 1 tcp 1540 ------- 0 0.0 2.0 25 75
r 6.268382 0 1 tcp 1540 ------- 0 0.0 2.0 24 74
+ 6.268382 1 2 tcp 1540 ------- 0 0.0 2.0 24 74
- 6.268382 1 2 tcp 1540 ------- 0 0.0 2.0 24 74
r 6.268506 0 1 tcp 1540 ------- 0 0.0 2.0 25 75
+ 6.268506 1 2 tcp 1540 ------- 0 0.0 2.0 25 75
- 6.391582 1 2 tcp 1540 ------- 0 0.0 2.0 25 75
r 6.392582 1 2 tcp 1540 ------- 0 0.0 2.0 24 74
+ 6.392582 2 1 ack 40 ------- 0 2.0 0.0 25 76
- 6.392582 2 1 ack 40 ------- 0 2.0 0.0 25 76
r 6.396782 2 1 ack 40 ------- 0 2.0 0.0 25 76
+ 6.396782 1 0 ack 40 ------- 0 2.0 0.0 25 76
- 6.396782 1 0 ack 40 ------- 0 2.0 0.0 25 76
r 6.446786 1 0 ack 40 ------- 0 2.0 0.0 25 76
+ 6.446786 0 1 tcp 1540 ------- 0 0.0 2.0 26 77
- 6.446786 0 1 tcp 1540 ------- 0 0.0 2.0 26 77
+ 6.446786 0 1 tcp 1540 ------- 0 0.0 2.0 27 78
+ 6.446786 0 1 tcp 1540 ------- 0 0.0 2.0 28 79
- 6.446909 0 1 tcp 1540 ------- 0 0.0 2.0 27 78
- 6.447032 0 1 tcp 1540 ------- 0 0.0 2.0 28 79
r 6.496909 0 1 tcp 1540 ------- 0 0.0 2.0 26 77
+ 6.496909 1 2 tcp 1540 ------- 0 0.0 2.0 26 77
r 6.497032 0 1 tcp 1540 ------- 0 0.0 2.0 27 78
+ 6.497032 1 2 tcp 1540 ------- 0 0.0 2.0 27 78
r 6.497155 0 1 tcp 1540 ------- 0 0.0 2.0 28 79
+ 6.497155 1 2 tcp 1540 ------- 0 0.0 2.0 28 79
- 6.514782 1 2 tcp 1540 ------- 0 0.0 2.0 26 77
r 6.515782 1 2 tcp 1540 ------- 0 0.0 2.0 25 75
+ 6.515782 2 1 ack 40 ------- 0 2.0 0.0 25 80
- 6.515782 2 1 ack 40 ------- 0 2.0 0.0 25 80
r 6.519982 2 1 ack 40 ------- 0 2.0 0.0 25 80
+ 6.519982 1 0 ack 40 ------- 0 2.0 0.0 25 80
- 6.519982 1 0 ack 40 ------- 0 2.0 0.0 25 80
r 6.569986 1 0 ack 40 ------- 0 2.0 0.0 25 80
+ 6.569986 0 1 tcp 1540 ------- 0 0.0 2.0 29 81
- 6.569986 0 1 tcp 1540 ------- 0 0.0 2.0 29 81
r 6.620109 0 1 tcp 1540 ------- 0 0.0 2.0 29 81
+ 6.620109 1 2 tcp 1540 ------- 0 0.0 2.0 29 81
- 6.637982 1 2 tcp 1540 ------- 0 0.0 2.0 27 78
r 6.638982 1 2 tcp 1540 ------- 0 0.0 2.0 26 77
+ 6.638982 2 1 ack 40 ------- 0 2.0 0.0 27 82
- 6.638982 2 1 ack 40 ------- 0 2.0 0.0 27 82
r 6.643182 2 1 ack 40 ------- 0 2.0 0.0 27 82
+ 6.643182 1 0 ack 40 ------- 0 2.0 0.0 27 82
- 6.643182 1 0 ack 40 ------- 0 2.0 0.0 27 82
r 6.693186 1 0 ack 40 ------- 0 2.0 0.0 27 82
+ 6.693186 0 1 tcp 1540 ------- 0 0.0 2.0 30 83
- 6.693186 0 1 tcp 1540 ------- 0 0.0 2.0 30 83
+ 6.693186 0 1 tcp 1540 ------- 0 0.0 2.0 31 84
- 6.693309 0 1 tcp 1540 ------- 0 0.0 2.0 31 84
r 6.743309 0 1 tcp 1540 ------- 0 0.0 2.0 30 83
+ 6.743309 1 2 tcp 1540 ------- 0 0.0 2.0 30 83
r 6.743432 0 1 tcp 1540 ------- 0 0.0 2.0 31 84
+ 6.743432 1 2 tcp 1540 ------- 0 0.0 2.0 31 84
- 6.761182 1 2 tcp 1540 ------- 0 0.0 2.0 28 79
r 6.762182 1 2 tcp 1540 ------- 0 0.0 2.0 27 78
+ 6.762182 2 1 ack 40 ------- 0 2.0 0.0 27 85
- 6.762182 2 1 ack 40 ------- 0 2.0 0.0 27 85
r 6.766382 2 1 ack 40 ------- 0 2.0 0.0 27 85
+ 6.766382 1 0 ack 40 ------- 0 2.0 0.0 27 85
- 6.766382 1 0 ack 40 ------- 0 2.0 0.0 27 85
r 6.816386 1 0 ack 40 ------- 0 2.0 0.0 27 85
+ 6.816386 0 1 tcp 1540 ------- 0 0.0 2.0 32 86
- 6.816386 0 1 tcp 1540 ------- 0 0.0 2.0 32 86
r 6.866509 0 1 tcp 1540 ------- 0 0.0 2.0 32 86
+ 6.866509 1 2 tcp 1540 ------- 0 0.0 2.0 32 86
- 6.884382 1 2 tcp 1540 ------- 0 0.0 2.0 29 81
r 6.885382 1 2 tcp 1540 ------- 0 0.0 2.0 28 79
+ 6.885382 2 1 ack 40 ------- 0 2.0 0.0 29 87
- 6.885382 2 1 ack 40 ------- 0 2.0 0.0 29 87
r 6.889582 2 1 ack 40 ------- 0 2.0 0.0 29 87
+ 6.889582 1 0 ack 40 ------- 0 2.0 0.0 29 87
- 6.889582 1 0 ack 40 ------- 0 2.0 0.0 29 87
r 6.939586 1 0 ack 40 ------- 0 2.0 0.0 29 87
+ 6.939586 0 1 tcp 1540 ------- 0 0.0 2.0 33 88
- 6.939586 0 1 tcp 1540 ------- 0 0.0 2.0 33 88
+ 6.939586 0 1 tcp 1540 ------- 0 0.0 2.0 34 89
- 6.939709 0 1 tcp 1540 ------- 0 0.0 2.0 34 89
r 6.989709 0 1 tcp 1540 ------- 0 0.0 2.0 33 88
+ 6.989709 1 2 tcp 1540 ------- 0 0.0 2.0 33 88
r 6.989832 0 1 tcp 1540 ------- 0 0.0 2.0 34 89
+ 6.989832 1 2 tcp 1540 ------- 0 0.0 2.0 34 89
- 7.007582 1 2 tcp 1540 ------- 0 0.0 2.0 30 83
r 7.008582 1 2 tcp 1540 ------- 0 0.0 2.0 29 81
+ 7.008582 2 1 ack 40 ------- 0 2.0 0.0 29 90
- 7.008582 2 1 ack 40 ------- 0 2.0 0.0 29 90
r 7.012782 2 1 ack 40 ------- 0 2.0 0.0 29 90
+ 7.012782 1 0 ack 40 ------- 0 2.0 0.0 29 90
- 7.012782 1 0 ack 40 ------- 0 2.0 0.0 29 90
r 7.062786 1 0 ack 40 ------- 0 2.0 0.0 29 90
+ 7.062786 0 1 tcp 1540 ------- 0 0.0 2.0 35 91
- 7.062786 0 1 tcp 1540 ------- 0 0.0 2.0 35 91
r 7.112909 0 1 tcp 1540 ------- 0 0.0 2.0 35 91
+ 7.112909 1 2 tcp 1540 ------- 0 0.0 2.0 35 91
- 7.130782 1 2 tcp 1540 ------- 0 0.0 2.0 31 84
r 7.131782 1 2 tcp 1540 ------- 0 0.0 2.0 30 83
+ 7.131782 2 1 ack 40 ------- 0 2.0 0.0 31 92
- 7.131782 2 1 ack 40 ------- 0 2.0 0.0 31 92
r 7.135982 2 1 ack 40 ------- 0 2.0 0.0 31 92
+ 7.135982 1 0 ack 40 ------- 0 2.0 0.0 31 92
- 7.135982 1 0 ack 40 ------- 0 2.0 0.0 31 92
r 7.185986 1 0 ack 40 ------- 0 2.0 0.0 31 92
+ 7.185986 0 1 tcp 1540 ------- 0 0.0 2.0 36 93
- 7.185986 0 1 tcp 1540 ------- 0 0.0 2.0 36 93
r 7.236109 0 1 tcp 1540 ------- 0 0.0 2.0 36 93
+ 7.236109 1 2 tcp 1540 ------- 0 0.0 2.0 36 93
- 7.253982 1 2 tcp 1540 ------- 0 0.0 2.0 32 86
r 7.254982 1 2 tcp 1540 ------- 0 0.0 2.0 31 84
+ 7.254982 2 1 ack 40 ------- 0 2.0 0.0 31 94
- 7.254982 2 1 ack 40 ------- 0 2.0 0.0 31 94
r 7.259182 2 1 ack 40 ------- 0 2.0 0.0 31 94
+ 7.259182 1 0 ack 40 ------- 0 2.0 0.0 31 94
- 7.259182 1 0 ack 40 ------- 0 2.0 0.0 31 94
r 7.309186 1 0 ack 40 ------- 0 2.0 0.0 31 94
+ 7.309186 0 1 tcp 1540 ------- 0 0.0 2.0 37 95
- 7.309186 0 1 tcp 1540 ------- 0 0.0 2.0 37 95
r 7.359309 0 1 tcp 1540 ------- 0 0.0 2.0 37 95
+ 7.359309 1 2 tcp 1540 ------- 0 0.0 2.0 37 95
- 7.377182 1 2 tcp 1540 ------- 0 0.0 2.0 33 88
r 7.378182 1 2 tcp 1540 ------- 0 0.0 2.0 32 86
+ 7.378182 2 1 ack 40 ------- 0 2.0 0.0 33 96
- 7.378182 2 1 ack 40 ------- 0 2.0 0.0 33 96
r 7.382382 2 1 ack 40 ------- 0 2.0 0.0 33 96
+ 7.382382 1 0 ack 40 ------- 0 2.0 0.0 33 96
- 7.382382 1 0 ack 40 ------- 0 2.0 0.0 33 96
r 7.432386 1 0 ack 40 ------- 0 2.0 0.0 33 96
+ 7.432386 0 1 tcp 1540 ------- 0 0.0 2.0 38 97
- 7.432386 0 1 tcp 1540 ------- 0 0.0 2.0 38 97
r 7.482509 0 1 tcp 1540 ------- 0 0.0 2.0 38 97
+ 7.482509 1 2 tcp 1540 ------- 0 0.0 2.0 38 97
- 7.500382 1 2 tcp 1540 ------- 0 0.0 2.0 34 89
r 7.501382 1 2 tcp 1540 ------- 0 0.0 2.0 33 88
+ 7.501382 2 1 ack 40 ------- 0 2.0 0.0 33 98
- 7.501382 2 1 ack 40 ------- 0 2.0 0.0 33 98
r 7.505582 2 1 ack 40 ------- 0 2.0 0.0 33 98
+ 7.505582 1 0 ack 40 ------- 0 2.0 0.0 33 98
- 7.505582 1 0 ack 40 ------- 0 2.0 0.0 33 98
r 7.555586 1 0 ack 40 ------- 0 2.0 0.0 33 98
+ 7.555586 0 1 tcp 1540 ------- 0 0.0 2.0 39 99
- 7.555586 0 1 tcp 1540 ------- 0 0.0 2.0 39 99
r 7.605709 0 1 tcp 1540 ------- 0 0.0 2.0 39 99
+ 7.605709 1 2 tcp 1540 ------- 0 0.0 2.0 39 99
- 7.623582 1 2 tcp 1540 ------- 0 0.0 2.0 35 91
r 7.624582 1 2 tcp 1540 ------- 0 0.0 2.0 34 89
+ 7.624582 2 1 ack 40 ------- 0 2.0 0.0 35 100
- 7.624582 2 1 ack 40 ------- 0 2.0 0.0 35 100
r 7.628782 2 1 ack 40 ------- 0 2.0 0.0 35 100
+ 7.628782 1 0 ack 40 ------- 0 2.0 0.0 35 100
- 7.628782 1 0 ack 40 ------- 0 2.0 0.0 35 100
r 7.678786 1 0 ack 40 ------- 0 2.0 0.0 35 100
+ 7.678786 0 1 tcp 1540 ------- 0 0.0 2.0 40 101
- 7.678786 0 1 tcp 1540 ------- 0 0.0 2.0 40 101
r 7.728909 0 1 tcp 1540 ------- 0 0.0 2.0 40 101
+ 7.728909 1 2 tcp 1540 ------- 0 0.0 2.0 40 101
- 7.746782 1 2 tcp 1540 ------- 0 0.0 2.0 36 93
r 7.747782 1 2 tcp 1540 ------- 0 0.0 2.0 35 91
+ 7.747782 2 1 ack 40 ------- 0 2.0 0.0 35 102
- 7.747782 2 1 ack 40 ------- 0 2.0 0.0 35 102
r 7.751982 2 1 ack 40 ------- 0 2.0 0.0 35 102
+ 7.751982 1 0 ack 40 ------- 0 2.0 0.0 35 102
- 7.751982 1 0 ack 40 ------- 0 2.0 0.0 35 102
r 7.801986 1 0 ack 40 ------- 0 2.0 0.0 35 102
+ 7.801986 0 1 tcp 1540 ------- 0 0.0 2.0 41 103
- 7.801986 0 1 tcp 1540 ------- 0 0.0 2.0 41 103
r 7.852109 0 1 tcp 1540 ------- 0 0.0 2.0 41 103
+ 7.852109 1 2 tcp 1540 ------- 0 0.0 2.0 41 103
- 7.869982 1 2 tcp 1540 ------- 0 0.0 2.0 37 95
r 7.870982 1 2 tcp 1540 ------- 0 0.0 2.0 36 93
+ 7.870982 2 1 ack 40 ------- 0 2.0 0.0 37 104
- 7.870982 2 1 ack 40 ------- 0 2.0 0.0 37 104
r 7.875182 2 1 ack 40 ------- 0 2.0 0.0 37 104
+ 7.875182 1 0 ack 40 ------- 0 2.0 0.0 37 104
- 7.875182 1 0 ack 40 ------- 0 2.0 0.0 37 104
r 7.925186 1 0 ack 40 ------- 0 2.0 0.0 37 104
+ 7.925186 0 1 tcp 1540 ------- 0 0.0 2.0 42 105
- 7.925186 0 1 tcp 1540 ------- 0 0.0 2.0 42 105
r 7.975309 0 1 tcp 1540 ------- 0 0.0 2.0 42 105
+ 7.975309 1 2 tcp 1540 ------- 0 0.0 2.0 42 105
- 7.993182 1 2 tcp 1540 ------- 0 0.0 2.0 38 97
r 7.994182 1 2 tcp 1540 ------- 0 0.0 2.0 37 95
+ 7.994182 2 1 ack 40 ------- 0 2.0 0.0 37 106
- 7.994182 2 1 ack 40 ------- 0 2.0 0.0 37 106
r 7.998382 2 1 ack 40 ------- 0 2.0 0.0 37 106
+ 7.998382 1 0 ack 40 ------- 0 2.0 0.0 37 106
- 7.998382 1 0 ack 40 ------- 0 2.0 0.0 37 106
r 8.048386 1 0 ack 40 ------- 0 2.0 0.0 37 106
+ 8.048386 0 1 tcp 1540 ------- 0 0.0 2.0 43 107
- 8.048386 0 1 tcp 1540 ------- 0 0.0 2.0 43 107
r 8.098509 0 1 tcp 1540 ------- 0 0.0 2.0 43 107
+ 8.098509 1 2 tcp 1540 ------- 0 0.0 2.0 43 107
- 8.116382 1 2 tcp 1540 ------- 0 0.0 2.0 39 99
r 8.117382 1 2 tcp 1540 ------- 0 0.0 2.0 38 97
+ 8.117382 2 1 ack 40 ------- 0 2.0 0.0 39 108
- 8.117382 2 1 ack 40 ------- 0 2.0 0.0 39 108
r 8.121582 2 1 ack 40 ------- 0 2.0 0.0 39 108
+ 8.121582 1 0 ack 40 ------- 0 2.0 0.0 39 108
- 8.121582 1 0 ack 40 ------- 0 2.0 0.0 39 108
r 8.171586 1 0 ack 40 ------- 0 2.0 0.0 39 108
+ 8.171586 0 1 tcp 1540 ------- 0 0.0 2.0 44 109
- 8.171586 0 1 tcp 1540 ------- 0 0.0 2.0 44 109
r 8.221709 0 1 tcp 1540 ------- 0 0.0 2.0 44 109
+ 8.221709 1 2 tcp 1540 ------- 0 0.0 2.0 44 109
- 8.239582 1 2 tcp 1540 ------- 0 0.0 2.0 40 101
r 8.240582 1 2 tcp 1540 ------- 0 0.0 2.0 39 99
+ 8.240582 2 1 ack 40 ------- 0 2.0 0.0 39 110
- 8.240582 2 1 ack 40 ------- 0 2.0 0.0 39 110
r 8.244782 2 1 ack 40 ------- 0 2.0 0.0 39 110